 Gaussian 16, Revision B.01,
 Gaussian 16:  ES64L-G16RevB.01 20-Dec-2017

 ----------------------------------------------------------------------
 # scrf=(solvent=water,iefpcm,externaliteration,1stvac,read) rb3lyp/aug
 -cc-pvdz empiricaldispersion=gd3 int(grid=ultrafine) scf=(maxcycle=500
 )
 ----------------------------------------------------------------------

 ---------------------------
 SP PCM job for MD frame H2O
 ---------------------------
 Symbolic Z-matrix:
 Charge =  0 Multiplicity = 1

                         Standard orientation:
 ---------------------------------------------------------------------
 Center     Atomic      Atomic             Coordinates (Angstroms)
 Number     Number       Type             X           Y           Z
 ---------------------------------------------------------------------
      1          8           0        0.000000    0.000000    0.117806
      2          1           0        0.000000    0.764190   -0.471223
      3          1           0       -0.000000   -0.764190   -0.471223
 ---------------------------------------------------------------------

 SCF Done:  E(RB3LYP) =  -76.4446520622     A.U. after    8 cycles
 SCF Done:  E(RB3LYP) =  -76.4503710637     A.U. after    8 cycles
 SCF Done:  E(RB3LYP) =  -76.4509659401     A.U. after    8 cycles
 SCF Done:  E(RB3LYP) =  -76.4510410321     A.U. after    7 cycles
 SCF Done:  E(RB3LYP) =  -76.4510509390     A.U. after    5 cycles
 SCF Done:  E(RB3LYP) =  -76.4510522548     A.U. after    5 cycles

 The electronic state is 1-A1.
 Alpha  occ. eigenvalues --  -19.16155  -1.02214  -0.53823  -0.40305  -0.32644
 Alpha virt. eigenvalues --   -0.01718   0.03138   0.09806   0.10883   0.12746
 Alpha virt. eigenvalues --    0.15888   0.17354   0.22346   0.28283   0.29244
 Alpha virt. eigenvalues --    0.32312   0.44774   0.51085   0.53016   0.62543

 Mulliken charges:
               1
     1  O   -0.227400
     2  H    0.113700
     3  H    0.113700
 Sum of Mulliken charges =  -0.00000

 Dipole moment (field-independent basis, Debye):
    X=              0.0000    Y=             -0.0000    Z=             -2.1509  Tot=              2.1509
 Quadrupole moment (field-independent basis, Debye-Ang):
   XX=             -7.8832   YY=             -4.4351   ZZ=             -6.5103
   XY=              0.0000   XZ=              0.0000   YZ=             -0.0000

 Normal termination of Gaussian 16 at Mon Jul 11 13:45:46 2022.
