 Gaussian 16, Revision B.01,
 Gaussian 16:  ES64L-G16RevB.01 20-Dec-2017

 ----------------------------------------------------------------------
 # geom=check scrf=(solvent=water,iefpcm,externaliteration,1stvac,read)
  rb3lyp/aug-cc-pvdz empiricaldispersion=gd3 scf=(maxcycle=500) int(Acc
 2E=11,grid=ultrafine)
 ----------------------------------------------------------------------

 -----------------------------------------------------------
 MD frame sim004_type3_coord-5_3-2-0_10C_b1_id81790_step1500
 -----------------------------------------------------------
 Structure from the checkpoint file:  "sim004_type3_coord-5_3-2-0_10C_b1_id81790_step1500_2.chk"
 Charge =  1 Multiplicity = 1

                         Standard orientation:
 ---------------------------------------------------------------------
 Center     Atomic      Atomic             Coordinates (Angstroms)
 Number     Number       Type             X           Y           Z
 ---------------------------------------------------------------------
      1          8           0        1.413767    1.171876    1.219211
      2          1           0        1.550814    1.875423    1.865263
      3          1           0        2.035367    0.465921    1.451008
      4          8           0        1.274087    0.624996   -1.627304
      5          1           0        1.363159    0.819151   -2.568539
      6          1           0        1.746248    1.329699   -1.160491
      7          8           0       -1.996064   -1.588563    0.017577
      8          1           0       -2.197519   -2.531791    0.000243
      9          1           0       -2.847848   -1.132935    0.000020
     10          8           0       -2.186568    1.347660    0.049472
     11          1           0       -2.543744    1.819765    0.813379
     12          1           0       -2.480035    1.861962   -0.714307
     13          8           0        1.731934   -1.503432    0.296433
     14          1           0        2.001082   -2.383305    0.588217
     15          1           0        2.167383   -1.359331   -0.555952
     16         11           0       -0.244742   -0.107713    0.058004
 ---------------------------------------------------------------------

 SCF Done:  E(RB3LYP) =  -544.464576651     A.U. after   10 cycles
 SCF Done:  E(RB3LYP) =  -544.541954309     A.U. after    8 cycles
 SCF Done:  E(RB3LYP) =  -544.542182152     A.U. after    8 cycles
 SCF Done:  E(RB3LYP) =  -544.542194083     A.U. after    5 cycles
 SCF Done:  E(RB3LYP) =  -544.542195699     A.U. after    5 cycles
 SCF Done:  E(RB3LYP) =  -544.542195981     A.U. after    3 cycles

 The electronic state is 1-A.
 Alpha  occ. eigenvalues --  -38.43648 -19.17641 -19.17392 -19.17350 -19.17279
 Alpha  occ. eigenvalues --  -19.17217  -2.17111  -1.10512  -1.10386  -1.10375
 Alpha  occ. eigenvalues --   -1.03966  -1.03755  -1.03365  -1.03281  -1.03144
 Alpha  occ. eigenvalues --   -0.56182  -0.55377  -0.55212  -0.55071  -0.54989
 Alpha  occ. eigenvalues --   -0.43413  -0.42504  -0.41994  -0.41809  -0.41778
 Alpha  occ. eigenvalues --   -0.34482  -0.34279  -0.34146  -0.34063  -0.34055
 Alpha virt. eigenvalues --   -0.03697  -0.01687  -0.00989  -0.00460   0.01255
 Alpha virt. eigenvalues --    0.01835   0.01857   0.01963   0.02077   0.03435
 Alpha virt. eigenvalues --    0.03626   0.03958   0.04109   0.05602   0.05980

 Mulliken charges:
               1
     1  O   -0.409664
     2  H    0.212778
     3  H    0.204949
     4  O   -0.426651
     5  H    0.213069
     6  H    0.218162
     7  O   -0.358517
     8  H    0.190943
     9  H    0.174538
    10  O   -0.399954
    11  H    0.205239
    12  H    0.210464
    13  O   -0.458823
    14  H    0.228694
    15  H    0.210957
    16  Na   0.983819
 Sum of Mulliken charges =   1.00000

 Dipole moment (field-independent basis, Debye):
    X=             -0.4928    Y=              0.7909    Z=             -0.1314  Tot=              0.9411
 Quadrupole moment (field-independent basis, Debye-Ang):
   XX=             -9.2898   YY=            -15.1816   ZZ=            -24.6019
   XY=             -2.5876   XZ=             -0.1588   YZ=              0.0284

 Normal termination of Gaussian 16 at Mon Jul 18 21:00:17 2022.
