 Gaussian 16, Revision B.01,
 Gaussian 16:  ES64L-G16RevB.01 20-Dec-2017

 ----------------------------------------------------------------------
 # geom=(newdefinition,check) opt=(calcall,maxcycles=500,maxstep=1,cart
 esian) freq iop(1/152=500,1/8=1) scf=(maxcycle=500,vshift=1000) int(gr
 id=ultrafine) rb3lyp/aug-cc-pvdz empiricaldispersion=gd3
 ----------------------------------------------------------------------

 -----------------------------------------------------------
 MD frame sim008_type3_coord-5_0-5-0_10C_b1_id81781_step4440
 -----------------------------------------------------------
 Structure from the checkpoint file:  "sim008_type3_coord-5_0-5-0_10C_b1_id81781_step4440.chk"
 Charge =  1 Multiplicity = 1

 SCF Done:  E(RB3LYP) =  -544.463878677     A.U. after   28 cycles
 SCF Done:  E(RB3LYP) =  -544.463878656     A.U. after   13 cycles
 SCF Done:  E(RB3LYP) =  -544.463878663     A.U. after   12 cycles
 Optimization completed on the basis of negligible forces.
    -- Stationary point found.
 Normal termination of Gaussian 16 at Tue Jul 19 12:12:31 2022.

 ----------------------------------------------------------------------
 #N Geom=AllCheck Guess=TCheck SCRF=Check Test GenChk RB3LYP/Aug-CC-pVD
 Z Freq
 ----------------------------------------------------------------------

 Structure from the checkpoint file:  "sim008_type3_coord-5_0-5-0_10C_b1_id81781_step4440.chk"
 -----------------------------------------------------------
 MD frame sim008_type3_coord-5_0-5-0_10C_b1_id81781_step4440
 -----------------------------------------------------------
 Charge =  1 Multiplicity = 1

                         Standard orientation:
 ---------------------------------------------------------------------
 Center     Atomic      Atomic             Coordinates (Angstroms)
 Number     Number       Type             X           Y           Z
 ---------------------------------------------------------------------
      1          8           0        2.210693   -1.060162   -0.377702
      2          1           0        2.490284   -1.591700   -1.134713
      3          1           0        2.708410   -1.416067    0.370235
      4          8           0       -1.380818   -1.656571   -0.838421
      5          8           0       -0.171584   -0.135715    2.252773
      6          8           0       -2.145521    1.109333   -0.429438
      7          1           0       -2.243017   -1.250960   -1.002077
      8          1           0       -1.456479   -2.575126   -1.122127
      9          1           0       -2.677019    1.383595    0.329580
     10          1           0       -2.393191    1.718241   -1.137629
     11          8           0        1.469388    1.736411   -0.577853
     12          1           0        0.177321    0.460248    2.927751
     13          1           0       -0.597967   -0.850026    2.743309
     14          1           0        1.558744    2.681731   -0.746298
     15          1           0        2.347375    1.354091   -0.710075
     16         11           0        0.020752    0.012692   -0.068439
 ---------------------------------------------------------------------

 SCF Done:  E(RB3LYP) =  -544.463878663     A.U. after    1 cycles

 The electronic state is 1-A.
 Alpha  occ. eigenvalues --  -38.57490 -19.31365 -19.31326 -19.31212 -19.30110
 Alpha  occ. eigenvalues --  -19.30104  -2.31044  -1.24396  -1.24370  -1.24305
 Alpha  occ. eigenvalues --   -1.17571  -1.17452  -1.17342  -1.16315  -1.16199
 Alpha  occ. eigenvalues --   -0.69039  -0.69021  -0.68989  -0.68388  -0.68358
 Alpha  occ. eigenvalues --   -0.57245  -0.56254  -0.56128  -0.55127  -0.55065
 Alpha  occ. eigenvalues --   -0.48130  -0.47956  -0.47644  -0.46828  -0.46779
 Alpha virt. eigenvalues --   -0.16265  -0.13842  -0.12976  -0.12433  -0.10618
 Alpha virt. eigenvalues --   -0.07998  -0.07941  -0.07730  -0.07159  -0.06200
 Alpha virt. eigenvalues --   -0.05638  -0.05215  -0.05035  -0.04862  -0.04840

 Mulliken charges:
               1
     1  O   -0.403904
     2  H    0.204194
     3  H    0.203200
     4  O   -0.308322
     5  O   -0.410145
     6  O   -0.413376
     7  H    0.165675
     8  H    0.182535
     9  H    0.200261
    10  H    0.208329
    11  O   -0.306938
    12  H    0.198383
    13  H    0.196885
    14  H    0.181769
    15  H    0.165527
    16  Na   0.935929
 Sum of Mulliken charges =   1.00000

 Dipole moment (field-independent basis, Debye):
    X=             -0.0091    Y=             -0.0786    Z=              0.6148  Tot=              0.6198
 Quadrupole moment (field-independent basis, Debye-Ang):
   XX=             -9.4002   YY=            -15.4910   ZZ=            -19.8744
   XY=             -3.1714   XZ=             -0.1649   YZ=             -0.0168

  Exact polarizability:  46.919  -0.774  49.143   0.036   0.146  45.773
 Approx polarizability:  55.048  -1.190  58.524  -0.016   0.153  56.043

                      1                      2                      3
                      A                      A                      A
 Frequencies --      3.3392                20.0517                26.9296
 Red. masses --      4.3608                 4.1751                 4.5387
 Frc consts  --      0.0000                 0.0010                 0.0019
 IR Inten    --      0.7127                 1.8615                 0.4897

                      4                      5                      6
                      A                      A                      A
 Frequencies --     34.5973                54.7825                78.1038
 Red. masses --      4.6534                 4.7455                 4.6533
 Frc consts  --      0.0033                 0.0084                 0.0167
 IR Inten    --      0.0688                 3.0923                 0.0921

                      7                      8                      9
                      A                      A                      A
 Frequencies --    100.2300               140.8851               150.0987
 Red. masses --      4.1446                 2.1856                 1.4355
 Frc consts  --      0.0245                 0.0256                 0.0191
 IR Inten    --     10.6273                 1.5397                 0.0846

                     10                     11                     12
                      A                      A                      A
 Frequencies --    161.4327               187.2692               190.2007
 Red. masses --      1.0685                 6.5516                 4.9168
 Frc consts  --      0.0164                 0.1354                 0.1048
 IR Inten    --      1.0240                 1.9184                 0.1185

                     13                     14                     15
                      A                      A                      A
 Frequencies --    195.3696               221.9225               237.7116
 Red. masses --      1.0223                 5.5188                 1.1078
 Frc consts  --      0.0230                 0.1601                 0.0369
 IR Inten    --      1.1819                 3.6401                18.9278

                     16                     17                     18
                      A                      A                      A
 Frequencies --    253.1073               262.6173               275.8517
 Red. masses --      1.1396                 3.2168                 1.2952
 Frc consts  --      0.0430                 0.1307                 0.0581
 IR Inten    --    173.4967                 2.9730                96.1064

                     19                     20                     21
                      A                      A                      A
 Frequencies --    307.7202               317.1730               324.8581
 Red. masses --      1.2057                 1.1928                 1.1405
 Frc consts  --      0.0673                 0.0707                 0.0709
 IR Inten    --     11.8227                31.5253               100.2953

                     22                     23                     24
                      A                      A                      A
 Frequencies --    332.3466               350.9351               365.9422
 Red. masses --      1.1815                 1.2924                 1.1590
 Frc consts  --      0.0769                 0.0938                 0.0914
 IR Inten    --    111.0156               294.1999                 8.8780

                     25                     26                     27
                      A                      A                      A
 Frequencies --    388.1205               415.2214               422.7008
 Red. masses --      1.2033                 1.0933                 1.0926
 Frc consts  --      0.1068                 0.1111                 0.1150
 IR Inten    --    384.1294               157.9693               249.3574

                     28                     29                     30
                      A                      A                      A
 Frequencies --   1613.3529              1614.3184              1634.1352
 Red. masses --      1.0840                 1.0840                 1.0834
 Frc consts  --      1.6625                 1.6644                 1.7045
 IR Inten    --    194.3385                32.8737                90.6003

                     31                     32                     33
                      A                      A                      A
 Frequencies --   1634.7419              1636.2304              3780.3167
 Red. masses --      1.0822                 1.0820                 1.0462
 Frc consts  --      1.7039                 1.7067                 8.8089
 IR Inten    --    147.1299                40.7703               102.5297

                     34                     35                     36
                      A                      A                      A
 Frequencies --   3781.2299              3784.0992              3784.8040
 Red. masses --      1.0463                 1.0458                 1.0458
 Frc consts  --      8.8136                 8.8228                 8.8268
 IR Inten    --      8.9882                 5.2160                15.8966

                     37                     38                     39
                      A                      A                      A
 Frequencies --   3790.2796              3876.3426              3876.9615
 Red. masses --      1.0458                 1.0818                 1.0818
 Frc consts  --      8.8516                 9.5772                 9.5807
 IR Inten    --     34.1495                77.7920               137.1534

                     40                     41                     42
                      A                      A                      A
 Frequencies --   3885.0958              3891.2565              3891.5501
 Red. masses --      1.0821                 1.0817                 1.0819
 Frc consts  --      9.6230                 9.6504                 9.6531
 IR Inten    --    107.9916                48.5834               208.3184

 - Thermochemistry -
 -------------------
 Temperature   298.150 Kelvin.  Pressure   1.00000 Atm.
 Atom     1 has atomic number  8 and mass  15.99491

 Molecular mass:   113.04259 amu.
 Principal axes and moments of inertia in atomic units:
                           1         2         3
     Eigenvalues --  1011.907331375.149501490.58878
           X            0.99994  -0.01082  -0.00037
           Y            0.01082   0.99994  -0.00062
           Z            0.00038   0.00061   1.00000
 This molecule is an asymmetric top.
 Rotational symmetry number  1.
 Warning -- assumption of classical behavior for rotation
           may cause significant error
 Rotational temperatures (Kelvin)      0.08559     0.06299     0.05811
 Rotational constants (GHZ):           1.78350     1.31240     1.21076
 Zero-point vibrational energy     312789.0 (Joules/Mol)
                                   74.75836 (Kcal/Mol)
 Warning -- explicit consideration of  27 degrees of freedom as
           vibrations may cause significant error
 Vibrational temperatures:      4.80    28.85    38.75    49.78    78.82
          (Kelvin)            112.37   144.21   202.70   215.96   232.27
                              269.44   273.66   281.09   319.30   342.01
                              364.17   377.85   396.89   442.74   456.34
                              467.40   478.17   504.92   526.51   558.42
                              597.41   608.17  2321.25  2322.64  2351.16
                             2352.03  2354.17  5439.03  5440.35  5444.47
                             5445.49  5453.37  5577.19  5578.08  5589.79
                             5598.65  5599.07

 Zero-point correction=                           0.119135 (Hartree/Particle)
 Thermal correction to Energy=                    0.137180
 Thermal correction to Enthalpy=                  0.138124
 Thermal correction to Gibbs Free Energy=         0.070043
 Sum of electronic and zero-point Energies=           -544.344744
 Sum of electronic and thermal Energies=              -544.326699
 Sum of electronic and thermal Enthalpies=            -544.325754
 Sum of electronic and thermal Free Energies=         -544.393836

                     E (Thermal)             CV                S
                      KCal/Mol        Cal/Mol-Kelvin    Cal/Mol-Kelvin
 Total                   86.082             54.104            143.290
 Electronic               0.000              0.000              0.000
 Translational            0.889              2.981             40.083
 Rotational               0.889              2.981             29.118
 Vibrational             84.304             48.142             74.088
 Vibration     1          0.592              1.987             10.191
 Vibration     2          0.593              1.986              6.629
 Vibration     3          0.593              1.984              6.044
 Vibration     4          0.594              1.983              5.547
 Vibration     5          0.596              1.976              4.637
 Vibration     6          0.599              1.964              3.938
 Vibration     7          0.604              1.949              3.450
 Vibration     8          0.615              1.912              2.792
 Vibration     9          0.618              1.903              2.671
 Vibration    10          0.622              1.890              2.533
 Vibration    11          0.632              1.857              2.255
 Vibration    12          0.634              1.853              2.226
 Vibration    13          0.636              1.846              2.176
 Vibration    14          0.648              1.808              1.943
 Vibration    15          0.656              1.783              1.820
 Vibration    16          0.664              1.758              1.709
 Vibration    17          0.670              1.741              1.644
 Vibration    18          0.677              1.718              1.559
 Vibration    19          0.698              1.659              1.375
 Vibration    20          0.704              1.641              1.325
 Vibration    21          0.709              1.626              1.286
 Vibration    22          0.714              1.611              1.249
 Vibration    23          0.728              1.573              1.162
 Vibration    24          0.739              1.542              1.097
 Vibration    25          0.756              1.496              1.007
 Vibration    26          0.779              1.437              0.908
 Vibration    27          0.785              1.421              0.883

 Optimization completed on the basis of negligible forces.
    -- Stationary point found.
 Normal termination of Gaussian 16 at Tue Jul 19 12:14:10 2022.
