 Gaussian 16, Revision B.01,
 Gaussian 16:  ES64L-G16RevB.01 20-Dec-2017

 ----------------------------------------------------------------------
 # geom=check scrf=(solvent=water,iefpcm,externaliteration,1stvac,read)
  rb3lyp/aug-cc-pvdz empiricaldispersion=gd3 scf=(maxcycle=500) int(Acc
 2E=11,grid=ultrafine)
 ----------------------------------------------------------------------

 -----------------------------------------------------------
 MD frame sim008_type3_coord-5_0-5-0_10C_b1_id81781_step4440
 -----------------------------------------------------------
 Structure from the checkpoint file:  "sim008_type3_coord-5_0-5-0_10C_b1_id81781_step4440_2.chk"
 Charge =  1 Multiplicity = 1

                         Standard orientation:
 ---------------------------------------------------------------------
 Center     Atomic      Atomic             Coordinates (Angstroms)
 Number     Number       Type             X           Y           Z
 ---------------------------------------------------------------------
      1          8           0        2.210693   -1.060162   -0.377702
      2          1           0        2.490284   -1.591700   -1.134713
      3          1           0        2.708410   -1.416067    0.370235
      4          8           0       -1.380818   -1.656571   -0.838421
      5          8           0       -0.171584   -0.135715    2.252773
      6          8           0       -2.145521    1.109333   -0.429438
      7          1           0       -2.243017   -1.250960   -1.002077
      8          1           0       -1.456479   -2.575126   -1.122127
      9          1           0       -2.677019    1.383595    0.329580
     10          1           0       -2.393191    1.718241   -1.137629
     11          8           0        1.469388    1.736411   -0.577853
     12          1           0        0.177321    0.460248    2.927751
     13          1           0       -0.597967   -0.850026    2.743309
     14          1           0        1.558744    2.681731   -0.746298
     15          1           0        2.347375    1.354091   -0.710075
     16         11           0        0.020752    0.012692   -0.068439
 ---------------------------------------------------------------------

 SCF Done:  E(RB3LYP) =  -544.463878662     A.U. after   10 cycles
 SCF Done:  E(RB3LYP) =  -544.540046885     A.U. after    9 cycles
 SCF Done:  E(RB3LYP) =  -544.540230553     A.U. after    8 cycles
 SCF Done:  E(RB3LYP) =  -544.540234999     A.U. after    6 cycles
 SCF Done:  E(RB3LYP) =  -544.540235267     A.U. after    3 cycles

 The electronic state is 1-A.
 Alpha  occ. eigenvalues --  -38.43387 -19.17676 -19.17675 -19.17652 -19.17141
 Alpha  occ. eigenvalues --  -19.17129  -2.16925  -1.10307  -1.10241  -1.10197
 Alpha  occ. eigenvalues --   -1.03936  -1.03781  -1.03748  -1.03273  -1.03167
 Alpha  occ. eigenvalues --   -0.55414  -0.55360  -0.55325  -0.55272  -0.55255
 Alpha  occ. eigenvalues --   -0.43693  -0.42596  -0.42500  -0.41968  -0.41774
 Alpha  occ. eigenvalues --   -0.34590  -0.34374  -0.34141  -0.33965  -0.33921
 Alpha virt. eigenvalues --   -0.03783  -0.01630  -0.01007  -0.00967   0.01213
 Alpha virt. eigenvalues --    0.01771   0.01878   0.01896   0.02067   0.03397
 Alpha virt. eigenvalues --    0.03454   0.03653   0.03840   0.05651   0.05843

 Mulliken charges:
               1
     1  O   -0.436730
     2  H    0.215656
     3  H    0.215173
     4  O   -0.348597
     5  O   -0.441781
     6  O   -0.445333
     7  H    0.176683
     8  H    0.193334
     9  H    0.211966
    10  H    0.219664
    11  O   -0.349266
    12  H    0.210218
    13  H    0.208649
    14  H    0.192689
    15  H    0.176770
    16  Na   1.000904
 Sum of Mulliken charges =   1.00000

 Dipole moment (field-independent basis, Debye):
    X=             -0.0080    Y=             -0.0807    Z=              0.6225  Tot=              0.6277
 Quadrupole moment (field-independent basis, Debye-Ang):
   XX=             -9.5085   YY=            -15.6584   ZZ=            -19.9146
   XY=             -3.3732   XZ=             -0.1673   YZ=             -0.0210

 Normal termination of Gaussian 16 at Tue Jul 19 12:15:18 2022.
