 Gaussian 16, Revision B.01,
 Gaussian 16:  ES64L-G16RevB.01 20-Dec-2017

 ----------------------------------------------------------------------
 # geom=check scrf=(solvent=water,iefpcm,externaliteration,1stvac,read)
  rb3lyp/aug-cc-pvdz empiricaldispersion=gd3 scf=(maxcycle=500) int(Acc
 2E=11,grid=ultrafine)
 ----------------------------------------------------------------------

 -----------------------------------------------------------
 MD frame sim010_type3_coord-5_1-4-0_10C_b1_id81750_step4840
 -----------------------------------------------------------
 Structure from the checkpoint file:  "sim010_type3_coord-5_1-4-0_10C_b1_id81750_step4840_2.chk"
 Charge =  1 Multiplicity = 1

                         Standard orientation:
 ---------------------------------------------------------------------
 Center     Atomic      Atomic             Coordinates (Angstroms)
 Number     Number       Type             X           Y           Z
 ---------------------------------------------------------------------
      1          8           0        0.517240   -1.301659    1.366445
      2          1           0        0.407063   -1.617460    2.273152
      3          1           0        0.638671   -2.093309    0.821853
      4          8           0        2.528701    0.290744    0.022030
      5          1           0        3.489672    0.382229    0.043873
      6          1           0        2.278318   -0.220705    0.809047
      7          8           0        0.587160   -1.071270   -1.473629
      8          1           0        0.607088   -1.406249   -2.377786
      9          1           0        1.458913   -0.666427   -1.307611
     10          8           0       -3.157772    0.000477    0.015180
     11          1           0       -3.742609   -0.695210   -0.312229
     12          1           0       -3.752750    0.681680    0.355255
     13          8           0        0.339296    2.022365    0.119780
     14          1           0        1.282823    1.785052    0.074004
     15          1           0        0.292051    2.983778    0.160037
     16         11           0       -0.861477    0.121942   -0.085277
 ---------------------------------------------------------------------

 SCF Done:  E(RB3LYP) =  -544.467388235     A.U. after   10 cycles
 SCF Done:  E(RB3LYP) =  -544.548065580     A.U. after    9 cycles
 SCF Done:  E(RB3LYP) =  -544.548504048     A.U. after    9 cycles
 SCF Done:  E(RB3LYP) =  -544.548540806     A.U. after    8 cycles
 SCF Done:  E(RB3LYP) =  -544.548546192     A.U. after    5 cycles
 SCF Done:  E(RB3LYP) =  -544.548547088     A.U. after    3 cycles

 The electronic state is 1-A.
 Alpha  occ. eigenvalues --  -38.43784 -19.18127 -19.18029 -19.17807 -19.16631
 Alpha  occ. eigenvalues --  -19.16477  -2.17294  -1.10712  -1.10587  -1.10525
 Alpha  occ. eigenvalues --   -1.04709  -1.03934  -1.03895  -1.02683  -1.02510
 Alpha  occ. eigenvalues --   -0.57153  -0.55794  -0.55446  -0.54835  -0.54587
 Alpha  occ. eigenvalues --   -0.43680  -0.43069  -0.42453  -0.41787  -0.41136
 Alpha  occ. eigenvalues --   -0.35213  -0.34828  -0.34448  -0.33966  -0.33289
 Alpha virt. eigenvalues --   -0.03589  -0.01666  -0.00749  -0.00354   0.01202
 Alpha virt. eigenvalues --    0.01819   0.01937   0.02061   0.02092   0.03333
 Alpha virt. eigenvalues --    0.03842   0.03959   0.04866   0.05531   0.06018

 Mulliken charges:
               1
     1  O   -0.430583
     2  H    0.222500
     3  H    0.213220
     4  O   -0.509695
     5  H    0.211083
     6  H    0.236263
     7  O   -0.364637
     8  H    0.197395
     9  H    0.208020
    10  O   -0.351601
    11  H    0.188807
    12  H    0.179731
    13  O   -0.358620
    14  H    0.196909
    15  H    0.189778
    16  Na   0.971429
 Sum of Mulliken charges =   1.00000

 Dipole moment (field-independent basis, Debye):
    X=             -0.9947    Y=             -1.1259    Z=              0.7471  Tot=              1.6778
 Quadrupole moment (field-independent basis, Debye-Ang):
   XX=             -1.4470   YY=            -21.5485   ZZ=            -27.1188
   XY=             -0.2870   XZ=              0.7682   YZ=             -0.3250

 Normal termination of Gaussian 16 at Mon Jul 18 21:39:59 2022.
