 Gaussian 16, Revision B.01,
 Gaussian 16:  ES64L-G16RevB.01 20-Dec-2017

 ----------------------------------------------------------------------
 # opt=(calcall,maxcycles=500,maxstep=10,cartesian) freq iop(1/152=500,
 1/8=10) scf=(maxcycle=500) int(Acc2E=11,grid=ultrafine) rb3lyp/aug-cc-
 pvdz empiricaldispersion=gd3
 ----------------------------------------------------------------------

 -----------------------------------------------------------
 MD frame sim007_type3_coord-5_5-0-0_10C_b1_id81786_step4900
 -----------------------------------------------------------
 Symbolic Z-matrix:
 Charge =  1 Multiplicity = 1

 SCF Done:  E(RB3LYP) =  -544.440509405     A.U. after   10 cycles
 SCF Done:  E(RB3LYP) =  -544.442455473     A.U. after    8 cycles
 SCF Done:  E(RB3LYP) =  -544.445948628     A.U. after    9 cycles
 SCF Done:  E(RB3LYP) =  -544.448663254     A.U. after    9 cycles
 SCF Done:  E(RB3LYP) =  -544.450582648     A.U. after    8 cycles
 SCF Done:  E(RB3LYP) =  -544.453535624     A.U. after    9 cycles
 SCF Done:  E(RB3LYP) =  -544.456815402     A.U. after    9 cycles
 SCF Done:  E(RB3LYP) =  -544.454455598     A.U. after    9 cycles
 SCF Done:  E(RB3LYP) =  -544.458909424     A.U. after    9 cycles
 SCF Done:  E(RB3LYP) =  -544.450244241     A.U. after   10 cycles
 SCF Done:  E(RB3LYP) =  -544.464575985     A.U. after    8 cycles
 SCF Done:  E(RB3LYP) =  -544.464555980     A.U. after    9 cycles
 SCF Done:  E(RB3LYP) =  -544.464574697     A.U. after    7 cycles
 SCF Done:  E(RB3LYP) =  -544.464576372     A.U. after    5 cycles
 SCF Done:  E(RB3LYP) =  -544.464576259     A.U. after    8 cycles
 SCF Done:  E(RB3LYP) =  -544.464576567     A.U. after    5 cycles
 SCF Done:  E(RB3LYP) =  -544.464576581     A.U. after    7 cycles
 SCF Done:  E(RB3LYP) =  -544.464576657     A.U. after    7 cycles
 SCF Done:  E(RB3LYP) =  -544.464576665     A.U. after    6 cycles
 Optimization completed on the basis of negligible forces.
    -- Stationary point found.
 Normal termination of Gaussian 16 at Mon Jul 18 21:35:58 2022.

 ----------------------------------------------------------------------
 #N Geom=AllCheck Guess=TCheck SCRF=Check Test GenChk RB3LYP/Aug-CC-pVD
 Z Freq
 ----------------------------------------------------------------------

 Structure from the checkpoint file:  "sim007_type3_coord-5_5-0-0_10C_b1_id81786_step4900.chk"
 -----------------------------------------------------------
 MD frame sim007_type3_coord-5_5-0-0_10C_b1_id81786_step4900
 -----------------------------------------------------------
 Charge =  1 Multiplicity = 1

                         Standard orientation:
 ---------------------------------------------------------------------
 Center     Atomic      Atomic             Coordinates (Angstroms)
 Number     Number       Type             X           Y           Z
 ---------------------------------------------------------------------
      1          8           0        1.732161   -1.504502   -0.290297
      2          1           0        2.167773   -1.356647    0.561363
      3          1           0        2.001479   -2.385535   -0.578395
      4          1           0        1.746245    1.334490    1.154586
      5          8           0       -1.996417   -1.588637   -0.017022
      6          1           0       -2.848085   -1.132782    0.000306
      7          1           0       -2.198131   -2.531803    0.000232
      8          8           0        1.413137    1.166851   -1.224152
      9          8           0        1.274644    0.631560    1.624633
     10          1           0        2.034689    0.459920   -1.453104
     11          1           0        1.549962    1.867612   -1.873272
     12          1           0        1.364201    0.829704    2.564990
     13          8           0       -2.186314    1.347608   -0.049157
     14          1           0       -2.543317    1.819716   -0.813143
     15          1           0       -2.479671    1.862093    0.714541
     16         11           0       -0.244803   -0.108164   -0.057286
 ---------------------------------------------------------------------

 SCF Done:  E(RB3LYP) =  -544.464576665     A.U. after    1 cycles

 The electronic state is 1-A.
 Alpha  occ. eigenvalues --  -38.58571 -19.31835 -19.31193 -19.31062 -19.30950
 Alpha  occ. eigenvalues --  -19.30524  -2.32067  -1.25408  -1.25380  -1.25311
 Alpha  occ. eigenvalues --   -1.17996  -1.17670  -1.17072  -1.16881  -1.16679
 Alpha  occ. eigenvalues --   -0.69952  -0.69484  -0.68853  -0.68716  -0.68687
 Alpha  occ. eigenvalues --   -0.57409  -0.56456  -0.55716  -0.55640  -0.55498
 Alpha  occ. eigenvalues --   -0.48518  -0.47981  -0.47893  -0.47802  -0.47200
 Alpha virt. eigenvalues --   -0.16437  -0.14037  -0.12740  -0.12145  -0.10729
 Alpha virt. eigenvalues --   -0.08281  -0.07646  -0.07238  -0.07127  -0.06413
 Alpha virt. eigenvalues --   -0.05791  -0.05332  -0.05173  -0.04915  -0.04867

 Mulliken charges:
               1
     1  O   -0.428713
     2  H    0.201068
     3  H    0.220925
     4  H    0.209593
     5  O   -0.312462
     6  H    0.162440
     7  H    0.181573
     8  O   -0.379319
     9  O   -0.401908
    10  H    0.196856
    11  H    0.204349
    12  H    0.205410
    13  O   -0.363325
    14  H    0.194366
    15  H    0.199469
    16  Na   0.909678
 Sum of Mulliken charges =   1.00000

 Dipole moment (field-independent basis, Debye):
    X=             -0.4598    Y=              0.7416    Z=              0.1330  Tot=              0.8826
 Quadrupole moment (field-independent basis, Debye-Ang):
   XX=             -8.7646   YY=            -14.8410   ZZ=            -24.4220
   XY=             -2.4398   XZ=              0.1377   YZ=             -0.0284

  Exact polarizability:  46.143  -0.708  49.334  -0.181  -0.144  46.594
 Approx polarizability:  54.013  -1.307  58.826  -0.118  -0.143  57.531

                      1                      2                      3
                      A                      A                      A
 Frequencies --     15.9531                43.6801                48.1687
 Red. masses --      4.2779                 4.6415                 4.7059
 Frc consts  --      0.0006                 0.0052                 0.0064
 IR Inten    --      0.1622                 1.1616                 1.2949

                      4                      5                      6
                      A                      A                      A
 Frequencies --     71.2391                85.7453                98.7599
 Red. masses --      4.3120                 4.3315                 4.1054
 Frc consts  --      0.0129                 0.0188                 0.0236
 IR Inten    --      1.9666                 7.1723                 7.1252

                      7                      8                      9
                      A                      A                      A
 Frequencies --    100.1043               115.9720               153.6324
 Red. masses --      3.8109                 1.0914                 4.8278
 Frc consts  --      0.0225                 0.0086                 0.0671
 IR Inten    --     13.6935                 0.4005                 2.9315

                     10                     11                     12
                      A                      A                      A
 Frequencies --    181.7642               190.3549               203.2724
 Red. masses --      5.5394                 5.7167                 5.2468
 Frc consts  --      0.1078                 0.1220                 0.1277
 IR Inten    --      0.0412                 2.3202                 0.4025

                     13                     14                     15
                      A                      A                      A
 Frequencies --    252.9850               257.9171               269.2344
 Red. masses --      1.1445                 1.1722                 1.1835
 Frc consts  --      0.0432                 0.0459                 0.0505
 IR Inten    --     44.3727                46.1320                93.9068

                     16                     17                     18
                      A                      A                      A
 Frequencies --    276.3165               303.1991               320.1105
 Red. masses --      5.6928                 1.0922                 1.1872
 Frc consts  --      0.2561                 0.0592                 0.0717
 IR Inten    --      9.8333                14.7928                51.1763

                     19                     20                     21
                      A                      A                      A
 Frequencies --    344.0624               355.6528               356.4587
 Red. masses --      1.1598                 1.1356                 1.0828
 Frc consts  --      0.0809                 0.0846                 0.0811
 IR Inten    --    432.4397                27.8764                28.5886

                     22                     23                     24
                      A                      A                      A
 Frequencies --    372.9478               383.9193               385.6114
 Red. masses --      1.1476                 1.2990                 1.1134
 Frc consts  --      0.0940                 0.1128                 0.0975
 IR Inten    --    118.9879                20.9427               133.0168

                     25                     26                     27
                      A                      A                      A
 Frequencies --    418.1028               433.1788               548.7852
 Red. masses --      1.1428                 1.1205                 1.0464
 Frc consts  --      0.1177                 0.1239                 0.1857
 IR Inten    --    288.3450               207.1213               154.3027

                     28                     29                     30
                      A                      A                      A
 Frequencies --   1604.6536              1615.1080              1616.9098
 Red. masses --      1.0844                 1.0817                 1.0816
 Frc consts  --      1.6451                 1.6625                 1.6660
 IR Inten    --    115.1545               113.6546               107.0850

                     31                     32                     33
                      A                      A                      A
 Frequencies --   1617.9019              1638.9775              3753.9301
 Red. masses --      1.0843                 1.0819                 1.0481
 Frc consts  --      1.6723                 1.7123                 8.7020
 IR Inten    --    109.6790                86.4532                47.8993

                     34                     35                     36
                      A                      A                      A
 Frequencies --   3764.1387              3768.0206              3781.7736
 Red. masses --      1.0470                 1.0465                 1.0459
 Frc consts  --      8.7402                 8.7541                 8.8134
 IR Inten    --     40.1507                33.2731                40.7643

                     37                     38                     39
                      A                      A                      A
 Frequencies --   3789.3613              3873.9570              3875.4816
 Red. masses --      1.0457                 1.0816                 1.0803
 Frc consts  --      8.8469                 9.5641                 9.5594
 IR Inten    --     24.1139                72.3619               172.7887

                     40                     41                     42
                      A                      A                      A
 Frequencies --   3876.3685              3876.5925              3891.8463
 Red. masses --      1.0813                 1.0809                 1.0823
 Frc consts  --      9.5728                 9.5708                 9.6585
 IR Inten    --    207.2368                51.6357               126.5786

 - Thermochemistry -
 -------------------
 Temperature   298.150 Kelvin.  Pressure   1.00000 Atm.
 Atom     1 has atomic number  8 and mass  15.99491

 Molecular mass:   113.04259 amu.
 Principal axes and moments of inertia in atomic units:
                           1         2         3
     Eigenvalues --   876.885981345.228781628.41224
           X            0.99998  -0.00677  -0.00001
           Y            0.00677   0.99998  -0.00042
           Z            0.00001   0.00042   1.00000
 This molecule is an asymmetric top.
 Rotational symmetry number  1.
 Warning -- assumption of classical behavior for rotation
           may cause significant error
 Rotational temperatures (Kelvin)      0.09877     0.06439     0.05319
 Rotational constants (GHZ):           2.05813     1.34159     1.10828
 Zero-point vibrational energy     316604.6 (Joules/Mol)
                                   75.67031 (Kcal/Mol)
 Warning -- explicit consideration of  27 degrees of freedom as
           vibrations may cause significant error
 Vibrational temperatures:     22.95    62.85    69.30   102.50   123.37
          (Kelvin)            142.09   144.03   166.86   221.04   261.52
                              273.88   292.46   363.99   371.09   387.37
                              397.56   436.24   460.57   495.03   511.71
                              512.86   536.59   552.37   554.81   601.56
                              623.25   789.58  2308.74  2323.78  2326.37
                             2327.80  2358.12  5401.07  5415.76  5421.34
                             5441.13  5452.05  5573.76  5575.95  5577.23
                             5577.55  5599.50

 Zero-point correction=                           0.120588 (Hartree/Particle)
 Thermal correction to Energy=                    0.137623
 Thermal correction to Enthalpy=                  0.138567
 Thermal correction to Gibbs Free Energy=         0.076049
 Sum of electronic and zero-point Energies=           -544.343988
 Sum of electronic and thermal Energies=              -544.326954
 Sum of electronic and thermal Enthalpies=            -544.326010
 Sum of electronic and thermal Free Energies=         -544.388528

                     E (Thermal)             CV                S
                      KCal/Mol        Cal/Mol-Kelvin    Cal/Mol-Kelvin
 Total                   86.360             52.840            131.581
 Electronic               0.000              0.000              0.000
 Translational            0.889              2.981             40.083
 Rotational               0.889              2.981             29.042
 Vibrational             84.582             46.878             62.456
 Vibration     1          0.593              1.986              7.083
 Vibration     2          0.595              1.980              5.085
 Vibration     3          0.595              1.978              4.891
 Vibration     4          0.598              1.968              4.119
 Vibration     5          0.601              1.959              3.755
 Vibration     6          0.604              1.950              3.479
 Vibration     7          0.604              1.949              3.452
 Vibration     8          0.608              1.936              3.166
 Vibration     9          0.619              1.899              2.627
 Vibration    10          0.630              1.865              2.310
 Vibration    11          0.634              1.853              2.224
 Vibration    12          0.639              1.835              2.103
 Vibration    13          0.664              1.758              1.710
 Vibration    14          0.667              1.749              1.676
 Vibration    15          0.674              1.730              1.601
 Vibration    16          0.678              1.717              1.556
 Vibration    17          0.695              1.668              1.399
 Vibration    18          0.706              1.635              1.310
 Vibration    19          0.723              1.587              1.193
 Vibration    20          0.731              1.564              1.141
 Vibration    21          0.732              1.562              1.138
 Vibration    22          0.744              1.528              1.068
 Vibration    23          0.753              1.504              1.024
 Vibration    24          0.754              1.501              1.017
 Vibration    25          0.781              1.431              0.898
 Vibration    26          0.794              1.398              0.848
 Vibration    27          0.904              1.142              0.547

 Optimization completed on the basis of negligible forces.
    -- Stationary point found.
 Normal termination of Gaussian 16 at Mon Jul 18 21:37:31 2022.
