 Gaussian 16, Revision B.01,
 Gaussian 16:  ES64L-G16RevB.01 20-Dec-2017

 ----------------------------------------------------------------------
 # geom=check scrf=(solvent=water,iefpcm,externaliteration,1stvac,read)
  rb3lyp/aug-cc-pvdz empiricaldispersion=gd3 scf=(maxcycle=500) int(Acc
 2E=11,grid=ultrafine)
 ----------------------------------------------------------------------

 -----------------------------------------------------------
 MD frame sim002_type3_coord-5_3-1-1_10C_b1_id81771_step1460
 -----------------------------------------------------------
 Structure from the checkpoint file:  "sim002_type3_coord-5_3-1-1_10C_b1_id81771_step1460_2.chk"
 Charge =  1 Multiplicity = 1

                         Standard orientation:
 ---------------------------------------------------------------------
 Center     Atomic      Atomic             Coordinates (Angstroms)
 Number     Number       Type             X           Y           Z
 ---------------------------------------------------------------------
      1          8           0        2.000499   -1.589011    0.010050
      2          8           0       -1.284657    0.705263   -1.591453
      3          1           0        2.204937   -2.531592   -0.007497
      4          8           0       -1.404481    1.107841    1.280043
      5          1           0       -2.024606    0.390124    1.477305
      6          1           0       -1.538129    1.775788    1.963522
      7          1           0        2.850987   -1.130763   -0.001513
      8          1           0       -1.381105    0.949022   -2.520338
      9          1           0       -1.749117    1.386716   -1.084073
     10          8           0        2.183868    1.347464    0.044714
     11          1           0        2.479012    1.861137   -0.718853
     12          1           0        2.536122    1.822342    0.809186
     13          8           0       -1.733268   -1.515383    0.221312
     14          1           0       -2.172280   -1.324887   -0.620100
     15          1           0       -2.003595   -2.408795    0.467225
     16         11           0        0.245644   -0.112589    0.047073
 ---------------------------------------------------------------------

 SCF Done:  E(RB3LYP) =  -544.464574225     A.U. after   10 cycles
 SCF Done:  E(RB3LYP) =  -544.541931657     A.U. after    8 cycles
 SCF Done:  E(RB3LYP) =  -544.542158636     A.U. after    8 cycles
 SCF Done:  E(RB3LYP) =  -544.542170493     A.U. after    5 cycles
 SCF Done:  E(RB3LYP) =  -544.542172099     A.U. after    5 cycles
 SCF Done:  E(RB3LYP) =  -544.542172379     A.U. after    3 cycles

 The electronic state is 1-A.
 Alpha  occ. eigenvalues --  -38.43676 -19.17644 -19.17392 -19.17355 -19.17283
 Alpha  occ. eigenvalues --  -19.17229  -2.17137  -1.10537  -1.10412  -1.10400
 Alpha  occ. eigenvalues --   -1.03972  -1.03759  -1.03369  -1.03282  -1.03152
 Alpha  occ. eigenvalues --   -0.56194  -0.55381  -0.55215  -0.55071  -0.54994
 Alpha  occ. eigenvalues --   -0.43414  -0.42501  -0.42004  -0.41809  -0.41794
 Alpha  occ. eigenvalues --   -0.34499  -0.34280  -0.34148  -0.34066  -0.34060
 Alpha virt. eigenvalues --   -0.03699  -0.01687  -0.00991  -0.00461   0.01254
 Alpha virt. eigenvalues --    0.01835   0.01862   0.01961   0.02073   0.03443
 Alpha virt. eigenvalues --    0.03626   0.03960   0.04075   0.05605   0.05989

 Mulliken charges:
               1
     1  O   -0.358486
     2  O   -0.425789
     3  H    0.191102
     4  O   -0.407944
     5  H    0.204946
     6  H    0.212011
     7  H    0.174880
     8  H    0.213386
     9  H    0.219265
    10  O   -0.399801
    11  H    0.210576
    12  H    0.206258
    13  O   -0.460755
    14  H    0.211570
    15  H    0.229407
    16  Na   0.979374
 Sum of Mulliken charges =   1.00000

 Dipole moment (field-independent basis, Debye):
    X=              0.4945    Y=              0.8043    Z=             -0.1289  Tot=              0.9529
 Quadrupole moment (field-independent basis, Debye-Ang):
   XX=             -9.3025   YY=            -15.1903   ZZ=            -24.6160
   XY=              2.5761   XZ=              0.1939   YZ=              0.0213

 Normal termination of Gaussian 16 at Mon Jul 18 21:13:14 2022.
