 Gaussian 16, Revision B.01,
 Gaussian 16:  ES64L-G16RevB.01 20-Dec-2017

 ----------------------------------------------------------------------
 # geom=check scrf=(solvent=water,iefpcm,externaliteration,1stvac,read)
  rb3lyp/aug-cc-pvdz empiricaldispersion=gd3 scf=(maxcycle=500) int(Acc
 2E=11,grid=ultrafine)
 ----------------------------------------------------------------------

 -----------------------------------------------------------
 MD frame sim007_type3_coord-5_5-0-0_10C_b1_id81786_step4900
 -----------------------------------------------------------
 Structure from the checkpoint file:  "sim007_type3_coord-5_5-0-0_10C_b1_id81786_step4900_2.chk"
 Charge =  1 Multiplicity = 1

                         Standard orientation:
 ---------------------------------------------------------------------
 Center     Atomic      Atomic             Coordinates (Angstroms)
 Number     Number       Type             X           Y           Z
 ---------------------------------------------------------------------
      1          8           0        1.732161   -1.504502   -0.290297
      2          1           0        2.167773   -1.356647    0.561363
      3          1           0        2.001479   -2.385535   -0.578395
      4          1           0        1.746245    1.334490    1.154586
      5          8           0       -1.996417   -1.588637   -0.017022
      6          1           0       -2.848085   -1.132782    0.000306
      7          1           0       -2.198131   -2.531803    0.000232
      8          8           0        1.413137    1.166851   -1.224152
      9          8           0        1.274644    0.631560    1.624633
     10          1           0        2.034689    0.459920   -1.453104
     11          1           0        1.549962    1.867612   -1.873272
     12          1           0        1.364201    0.829704    2.564990
     13          8           0       -2.186314    1.347608   -0.049157
     14          1           0       -2.543317    1.819716   -0.813143
     15          1           0       -2.479671    1.862093    0.714541
     16         11           0       -0.244803   -0.108164   -0.057286
 ---------------------------------------------------------------------

 SCF Done:  E(RB3LYP) =  -544.464576665     A.U. after   10 cycles
 SCF Done:  E(RB3LYP) =  -544.541950173     A.U. after    8 cycles
 SCF Done:  E(RB3LYP) =  -544.542177785     A.U. after    8 cycles
 SCF Done:  E(RB3LYP) =  -544.542189688     A.U. after    5 cycles
 SCF Done:  E(RB3LYP) =  -544.542191299     A.U. after    5 cycles
 SCF Done:  E(RB3LYP) =  -544.542191580     A.U. after    3 cycles

 The electronic state is 1-A.
 Alpha  occ. eigenvalues --  -38.43652 -19.17642 -19.17392 -19.17351 -19.17280
 Alpha  occ. eigenvalues --  -19.17219  -2.17114  -1.10515  -1.10389  -1.10378
 Alpha  occ. eigenvalues --   -1.03966  -1.03755  -1.03366  -1.03281  -1.03145
 Alpha  occ. eigenvalues --   -0.56183  -0.55378  -0.55212  -0.55071  -0.54990
 Alpha  occ. eigenvalues --   -0.43413  -0.42504  -0.41995  -0.41809  -0.41780
 Alpha  occ. eigenvalues --   -0.34484  -0.34279  -0.34146  -0.34063  -0.34056
 Alpha virt. eigenvalues --   -0.03697  -0.01687  -0.00989  -0.00460   0.01255
 Alpha virt. eigenvalues --    0.01835   0.01857   0.01963   0.02076   0.03435
 Alpha virt. eigenvalues --    0.03626   0.03958   0.04106   0.05602   0.05980

 Mulliken charges:
               1
     1  O   -0.458977
     2  H    0.211008
     3  H    0.228752
     4  H    0.218256
     5  O   -0.358500
     6  H    0.174561
     7  H    0.190946
     8  O   -0.409524
     9  O   -0.426569
    10  H    0.204952
    11  H    0.212721
    12  H    0.213096
    13  O   -0.399933
    14  H    0.205311
    15  H    0.210484
    16  Na   0.983416
 Sum of Mulliken charges =   1.00000

 Dipole moment (field-independent basis, Debye):
    X=             -0.4927    Y=              0.7919    Z=              0.1312  Tot=              0.9419
 Quadrupole moment (field-independent basis, Debye-Ang):
   XX=             -9.2902   YY=            -15.1822   ZZ=            -24.6026
   XY=             -2.5867   XZ=              0.1622   YZ=             -0.0272

 Normal termination of Gaussian 16 at Mon Jul 18 21:38:45 2022.
