 Gaussian 16, Revision B.01,
 Gaussian 16:  ES64L-G16RevB.01 20-Dec-2017

 ----------------------------------------------------------------------
 # geom=check scrf=(solvent=water,iefpcm,externaliteration,1stvac,read)
  rb3lyp/aug-cc-pvdz empiricaldispersion=gd3 scf=(maxcycle=500) int(Acc
 2E=11,grid=ultrafine)
 ----------------------------------------------------------------------

 -----------------------------------------------------------
 MD frame sim001_type3_coord-5_0-5-0_10C_b1_id81779_step4600
 -----------------------------------------------------------
 Structure from the checkpoint file:  "sim001_type3_coord-5_0-5-0_10C_b1_id81779_step4600_2.chk"
 Charge =  1 Multiplicity = 1

                         Standard orientation:
 ---------------------------------------------------------------------
 Center     Atomic      Atomic             Coordinates (Angstroms)
 Number     Number       Type             X           Y           Z
 ---------------------------------------------------------------------
      1          8           0       -2.178551   -1.080461    0.412177
      2          1           0       -2.698098   -1.395610   -0.339197
      3          1           0       -1.501945    2.635468    0.940265
      4          1           0       -2.437911   -1.650703    1.147888
      5          1           0        2.442313    1.645578    1.146859
      6          1           0        2.699520    1.396955   -0.341806
      7          1           0        1.506649   -2.639737    0.924510
      8          8           0        1.424583   -1.704711    0.703240
      9          8           0        2.181520    1.078477    0.409228
     10          8           0       -1.420531    1.701508    0.714304
     11          1           0       -2.291187    1.309658    0.865999
     12          1           0        2.295944   -1.313800    0.853277
     13          8           0       -0.007815    0.005468   -2.266786
     14          1           0       -0.399583    0.668095   -2.849903
     15          1           0        0.380424   -0.652229   -2.857785
     16         11           0        0.000929   -0.000538    0.066599
 ---------------------------------------------------------------------

 SCF Done:  E(RB3LYP) =  -544.463880564     A.U. after   10 cycles
 SCF Done:  E(RB3LYP) =  -544.540026457     A.U. after    9 cycles
 SCF Done:  E(RB3LYP) =  -544.540209441     A.U. after    8 cycles
 SCF Done:  E(RB3LYP) =  -544.540213807     A.U. after    6 cycles
 SCF Done:  E(RB3LYP) =  -544.540214063     A.U. after    3 cycles

 The electronic state is 1-A.
 Alpha  occ. eigenvalues --  -38.43397 -19.17682 -19.17681 -19.17660 -19.17139
 Alpha  occ. eigenvalues --  -19.17138  -2.16936  -1.10317  -1.10253  -1.10207
 Alpha  occ. eigenvalues --   -1.03941  -1.03787  -1.03756  -1.03277  -1.03171
 Alpha  occ. eigenvalues --   -0.55417  -0.55364  -0.55330  -0.55269  -0.55268
 Alpha  occ. eigenvalues --   -0.43699  -0.42585  -0.42531  -0.41972  -0.41778
 Alpha  occ. eigenvalues --   -0.34596  -0.34380  -0.34148  -0.33968  -0.33925
 Alpha virt. eigenvalues --   -0.03785  -0.01630  -0.01005  -0.00980   0.01213
 Alpha virt. eigenvalues --    0.01769   0.01877   0.01894   0.02065   0.03396
 Alpha virt. eigenvalues --    0.03448   0.03648   0.03839   0.05650   0.05851

 Mulliken charges:
               1
     1  O   -0.441424
     2  H    0.213863
     3  H    0.193167
     4  H    0.217658
     5  H    0.217474
     6  H    0.214001
     7  H    0.193132
     8  O   -0.349149
     9  O   -0.441026
    10  O   -0.349089
    11  H    0.176827
    12  H    0.176831
    13  O   -0.443636
    14  H    0.210073
    15  H    0.210134
    16  Na   1.001164
 Sum of Mulliken charges =   1.00000

 Dipole moment (field-independent basis, Debye):
    X=             -0.0004    Y=              0.0034    Z=             -0.6204  Tot=              0.6204
 Quadrupole moment (field-independent basis, Debye-Ang):
   XX=             -9.5411   YY=            -15.6532   ZZ=            -19.8388
   XY=              3.3804   XZ=              0.0069   YZ=             -0.0012

 Normal termination of Gaussian 16 at Mon Jul 18 21:04:58 2022.
