 Gaussian 16, Revision B.01,
 Gaussian 16:  ES64L-G16RevB.01 20-Dec-2017

 ----------------------------------------------------------------------
 # opt=(calcall,maxcycles=500,maxstep=10,cartesian) freq iop(1/152=500,
 1/8=10) scf=(maxcycle=500) int(Acc2E=11,grid=ultrafine) rb3lyp/aug-cc-
 pvdz empiricaldispersion=gd3
 ----------------------------------------------------------------------

 -----------------------------------------------------------
 MD frame sim003_type3_coord-5_2-3-0_10C_b1_id81786_step1560
 -----------------------------------------------------------
 Symbolic Z-matrix:
 Charge =  1 Multiplicity = 1

 SCF Done:  E(RB3LYP) =  -544.442771487     A.U. after   10 cycles
 SCF Done:  E(RB3LYP) =  -544.444364578     A.U. after    8 cycles
 SCF Done:  E(RB3LYP) =  -544.447104231     A.U. after    9 cycles
 SCF Done:  E(RB3LYP) =  -544.448922895     A.U. after    9 cycles
 SCF Done:  E(RB3LYP) =  -544.449935829     A.U. after    8 cycles
 SCF Done:  E(RB3LYP) =  -544.451592736     A.U. after    9 cycles
 SCF Done:  E(RB3LYP) =  -544.453069011     A.U. after    9 cycles
 SCF Done:  E(RB3LYP) =  -544.454390050     A.U. after    9 cycles
 SCF Done:  E(RB3LYP) =  -544.456440206     A.U. after    9 cycles
 SCF Done:  E(RB3LYP) =  -544.458453940     A.U. after    9 cycles
 SCF Done:  E(RB3LYP) =  -544.458924091     A.U. after    9 cycles
 SCF Done:  E(RB3LYP) =  -544.463879562     A.U. after    4 cycles
 SCF Done:  E(RB3LYP) =  -544.463880425     A.U. after    7 cycles
 SCF Done:  E(RB3LYP) =  -544.463880246     A.U. after    6 cycles
 SCF Done:  E(RB3LYP) =  -544.463880155     A.U. after    7 cycles
 SCF Done:  E(RB3LYP) =  -544.463880436     A.U. after    6 cycles
 SCF Done:  E(RB3LYP) =  -544.463880396     A.U. after    6 cycles
 SCF Done:  E(RB3LYP) =  -544.463880565     A.U. after    6 cycles
 SCF Done:  E(RB3LYP) =  -544.463880555     A.U. after    5 cycles
 Optimization completed on the basis of negligible forces.
    -- Stationary point found.
 Normal termination of Gaussian 16 at Mon Jul 18 21:32:08 2022.

 ----------------------------------------------------------------------
 #N Geom=AllCheck Guess=TCheck SCRF=Check Test GenChk RB3LYP/Aug-CC-pVD
 Z Freq
 ----------------------------------------------------------------------

 Structure from the checkpoint file:  "sim003_type3_coord-5_2-3-0_10C_b1_id81786_step1560.chk"
 -----------------------------------------------------------
 MD frame sim003_type3_coord-5_2-3-0_10C_b1_id81786_step1560
 -----------------------------------------------------------
 Charge =  1 Multiplicity = 1

                         Standard orientation:
 ---------------------------------------------------------------------
 Center     Atomic      Atomic             Coordinates (Angstroms)
 Number     Number       Type             X           Y           Z
 ---------------------------------------------------------------------
      1          8           0       -1.420422   -1.701403   -0.714888
      2          1           0       -1.501745   -2.635267   -0.941280
      3          1           0       -2.291144   -1.309590   -0.866301
      4          8           0       -0.007588   -0.005959    2.266717
      5          1           0       -0.399138   -0.668815    2.849716
      6          1           0        0.380516    0.651709    2.857831
      7          8           0       -2.178754    1.080357   -0.411468
      8          8           0        1.424324    1.704890   -0.703378
      9          1           0        2.295749    1.314093   -0.853339
     10          1           0        1.506270    2.639912   -0.924709
     11          1           0       -2.438326    1.650877   -1.146887
     12          1           0       -2.698185    1.395130    0.340142
     13          8           0        2.181674   -1.078158   -0.409098
     14          1           0        2.699601   -1.396503    0.342045
     15          1           0        2.442702   -1.645247   -1.146656
     16         11           0        0.000894    0.000536   -0.066695
 ---------------------------------------------------------------------

 SCF Done:  E(RB3LYP) =  -544.463880555     A.U. after    1 cycles

 The electronic state is 1-A.
 Alpha  occ. eigenvalues --  -38.57484 -19.31346 -19.31345 -19.31206 -19.30105
 Alpha  occ. eigenvalues --  -19.30104  -2.31040  -1.24391  -1.24365  -1.24300
 Alpha  occ. eigenvalues --   -1.17567  -1.17454  -1.17339  -1.16312  -1.16196
 Alpha  occ. eigenvalues --   -0.69034  -0.69011  -0.68995  -0.68385  -0.68356
 Alpha  occ. eigenvalues --   -0.57241  -0.56236  -0.56148  -0.55125  -0.55063
 Alpha  occ. eigenvalues --   -0.48127  -0.47955  -0.47640  -0.46824  -0.46777
 Alpha virt. eigenvalues --   -0.16262  -0.13837  -0.12982  -0.12434  -0.10615
 Alpha virt. eigenvalues --   -0.07973  -0.07969  -0.07730  -0.07159  -0.06198
 Alpha virt. eigenvalues --   -0.05638  -0.05204  -0.05033  -0.04863  -0.04838

 Mulliken charges:
               1
     1  O   -0.307884
     2  H    0.182260
     3  H    0.165705
     4  O   -0.411624
     5  H    0.198139
     6  H    0.198201
     7  O   -0.408944
     8  O   -0.307814
     9  H    0.165702
    10  H    0.182221
    11  H    0.206199
    12  H    0.201993
    13  O   -0.408536
    14  H    0.202124
    15  H    0.206022
    16  Na   0.936235
 Sum of Mulliken charges =   1.00000

 Dipole moment (field-independent basis, Debye):
    X=             -0.0005    Y=             -0.0035    Z=              0.6138  Tot=              0.6138
 Quadrupole moment (field-independent basis, Debye-Ang):
   XX=             -9.4380   YY=            -15.4947   ZZ=            -19.8016
   XY=             -3.1791   XZ=             -0.0073   YZ=             -0.0007

  Exact polarizability:  46.923  -0.771  49.153   0.002   0.007  45.752
 Approx polarizability:  55.057  -1.185  58.535  -0.001   0.007  56.018

                      1                      2                      3
                      A                      A                      A
 Frequencies --      9.4857                20.2373                27.2259
 Red. masses --      4.4041                 4.1428                 4.5143
 Frc consts  --      0.0002                 0.0010                 0.0020
 IR Inten    --      0.7292                 1.7757                 0.4501

                      4                      5                      6
                      A                      A                      A
 Frequencies --     34.3206                54.9353                78.2829
 Red. masses --      4.7015                 4.7366                 4.6606
 Frc consts  --      0.0033                 0.0084                 0.0168
 IR Inten    --      0.0189                 3.1656                 0.0707

                      7                      8                      9
                      A                      A                      A
 Frequencies --    100.3855               141.0737               151.0946
 Red. masses --      4.1542                 2.3490                 1.3853
 Frc consts  --      0.0247                 0.0275                 0.0186
 IR Inten    --     10.5433                 1.5343                 0.1291

                     10                     11                     12
                      A                      A                      A
 Frequencies --    160.3588               187.0857               190.1843
 Red. masses --      1.0572                 6.9356                 4.9215
 Frc consts  --      0.0160                 0.1430                 0.1049
 IR Inten    --      0.9115                 2.0256                 0.0951

                     13                     14                     15
                      A                      A                      A
 Frequencies --    194.3452               222.6583               237.2424
 Red. masses --      1.0145                 5.5213                 1.1058
 Frc consts  --      0.0226                 0.1613                 0.0367
 IR Inten    --      0.9035                 3.5905                18.3531

                     16                     17                     18
                      A                      A                      A
 Frequencies --    252.7528               262.3442               275.6678
 Red. masses --      1.1362                 3.1882                 1.3056
 Frc consts  --      0.0428                 0.1293                 0.0585
 IR Inten    --    174.5344                 2.6323                96.8392

                     19                     20                     21
                      A                      A                      A
 Frequencies --    307.7592               317.3384               324.3969
 Red. masses --      1.2066                 1.1919                 1.1412
 Frc consts  --      0.0673                 0.0707                 0.0708
 IR Inten    --     12.4648                34.3625                96.8779

                     22                     23                     24
                      A                      A                      A
 Frequencies --    332.0209               350.8568               365.8895
 Red. masses --      1.1819                 1.2932                 1.1591
 Frc consts  --      0.0768                 0.0938                 0.0914
 IR Inten    --    109.4172               294.7653                 8.5692

                     25                     26                     27
                      A                      A                      A
 Frequencies --    388.2882               416.0922               421.9062
 Red. masses --      1.2039                 1.0910                 1.0943
 Frc consts  --      0.1069                 0.1113                 0.1148
 IR Inten    --    386.8837               137.8737               267.4275

                     28                     29                     30
                      A                      A                      A
 Frequencies --   1613.4277              1614.2922              1634.2635
 Red. masses --      1.0841                 1.0840                 1.0834
 Frc consts  --      1.6626                 1.6643                 1.7048
 IR Inten    --    203.7866                23.4556                90.9565

                     31                     32                     33
                      A                      A                      A
 Frequencies --   1635.1047              1635.9846              3780.4379
 Red. masses --      1.0822                 1.0820                 1.0462
 Frc consts  --      1.7047                 1.7062                 8.8090
 IR Inten    --    181.8962                 5.3951               109.8361

                     34                     35                     36
                      A                      A                      A
 Frequencies --   3781.2272              3784.2384              3784.7052
 Red. masses --      1.0463                 1.0458                 1.0458
 Frc consts  --      8.8139                 8.8237                 8.8262
 IR Inten    --      2.1544                 2.6017                18.0650

                     37                     38                     39
                      A                      A                      A
 Frequencies --   3790.4629              3876.5557              3876.7477
 Red. masses --      1.0458                 1.0818                 1.0818
 Frc consts  --      8.8525                 9.5784                 9.5795
 IR Inten    --     34.1864                11.7851               203.2570

                     40                     41                     42
                      A                      A                      A
 Frequencies --   3885.2176              3891.3454              3891.5318
 Red. masses --      1.0821                 1.0817                 1.0818
 Frc consts  --      9.6236                 9.6511                 9.6529
 IR Inten    --    107.9935                 2.6045               254.2617

 - Thermochemistry -
 -------------------
 Temperature   298.150 Kelvin.  Pressure   1.00000 Atm.
 Atom     1 has atomic number  8 and mass  15.99491

 Molecular mass:   113.04259 amu.
 Principal axes and moments of inertia in atomic units:
                           1         2         3
     Eigenvalues --  1014.594651375.741601488.28664
           X            0.99994  -0.01091  -0.00002
           Y            0.01091   0.99994  -0.00003
           Z            0.00002   0.00003   1.00000
 This molecule is an asymmetric top.
 Rotational symmetry number  1.
 Warning -- assumption of classical behavior for rotation
           may cause significant error
 Rotational temperatures (Kelvin)      0.08537     0.06296     0.05820
 Rotational constants (GHZ):           1.77878     1.31183     1.21263
 Zero-point vibrational energy     312822.1 (Joules/Mol)
                                   74.76628 (Kcal/Mol)
 Warning -- explicit consideration of  27 degrees of freedom as
           vibrations may cause significant error
 Vibrational temperatures:     13.65    29.12    39.17    49.38    79.04
          (Kelvin)            112.63   144.43   202.97   217.39   230.72
                              269.17   273.63   279.62   320.36   341.34
                              363.65   377.45   396.62   442.80   456.58
                              466.73   477.70   504.80   526.43   558.66
                              598.66   607.03  2321.36  2322.61  2351.34
                             2352.55  2353.82  5439.21  5440.34  5444.68
                             5445.35  5453.63  5577.50  5577.78  5589.96
                             5598.78  5599.05

 Zero-point correction=                           0.119148 (Hartree/Particle)
 Thermal correction to Energy=                    0.137180
 Thermal correction to Enthalpy=                  0.138124
 Thermal correction to Gibbs Free Energy=         0.071039
 Sum of electronic and zero-point Energies=           -544.344733
 Sum of electronic and thermal Energies=              -544.326700
 Sum of electronic and thermal Enthalpies=            -544.325756
 Sum of electronic and thermal Free Energies=         -544.392842

                     E (Thermal)             CV                S
                      KCal/Mol        Cal/Mol-Kelvin    Cal/Mol-Kelvin
 Total                   86.082             54.107            141.194
 Electronic               0.000              0.000              0.000
 Translational            0.889              2.981             40.083
 Rotational               0.889              2.981             29.120
 Vibrational             84.304             48.145             71.991
 Vibration     1          0.593              1.987              8.116
 Vibration     2          0.593              1.986              6.611
 Vibration     3          0.593              1.984              6.022
 Vibration     4          0.594              1.983              5.563
 Vibration     5          0.596              1.976              4.631
 Vibration     6          0.600              1.964              3.933
 Vibration     7          0.604              1.949              3.447
 Vibration     8          0.615              1.912              2.789
 Vibration     9          0.619              1.901              2.658
 Vibration    10          0.622              1.891              2.546
 Vibration    11          0.632              1.858              2.257
 Vibration    12          0.634              1.853              2.226
 Vibration    13          0.635              1.848              2.186
 Vibration    14          0.648              1.807              1.937
 Vibration    15          0.656              1.784              1.823
 Vibration    16          0.664              1.758              1.711
 Vibration    17          0.670              1.742              1.646
 Vibration    18          0.677              1.718              1.560
 Vibration    19          0.698              1.659              1.374
 Vibration    20          0.704              1.640              1.324
 Vibration    21          0.709              1.627              1.288
 Vibration    22          0.714              1.612              1.250
 Vibration    23          0.728              1.573              1.162
 Vibration    24          0.739              1.542              1.097
 Vibration    25          0.756              1.495              1.007
 Vibration    26          0.779              1.435              0.905
 Vibration    27          0.784              1.423              0.886

 Optimization completed on the basis of negligible forces.
    -- Stationary point found.
 Normal termination of Gaussian 16 at Mon Jul 18 21:33:41 2022.
