 Gaussian 16, Revision B.01,
 Gaussian 16:  ES64L-G16RevB.01 20-Dec-2017

 ----------------------------------------------------------------------
 # opt=(calcall,maxcycles=500,maxstep=10,cartesian) freq iop(1/152=500,
 1/8=10) scf=(maxcycle=500) int(Acc2E=11,grid=ultrafine) rb3lyp/aug-cc-
 pvdz empiricaldispersion=gd3
 ----------------------------------------------------------------------

 -----------------------------------------------------------
 MD frame sim005_type3_coord-5_0-5-0_10C_b1_id81779_step2120
 -----------------------------------------------------------
 Symbolic Z-matrix:
 Charge =  1 Multiplicity = 1

 SCF Done:  E(RB3LYP) =  -544.447950109     A.U. after   10 cycles
 SCF Done:  E(RB3LYP) =  -544.449114857     A.U. after    8 cycles
 SCF Done:  E(RB3LYP) =  -544.451203389     A.U. after    9 cycles
 SCF Done:  E(RB3LYP) =  -544.452860105     A.U. after    9 cycles
 SCF Done:  E(RB3LYP) =  -544.453795615     A.U. after    8 cycles
 SCF Done:  E(RB3LYP) =  -544.455206426     A.U. after    9 cycles
 SCF Done:  E(RB3LYP) =  -544.456655253     A.U. after    9 cycles
 SCF Done:  E(RB3LYP) =  -544.458364309     A.U. after    9 cycles
 SCF Done:  E(RB3LYP) =  -544.460412034     A.U. after    9 cycles
 SCF Done:  E(RB3LYP) =  -544.456735445     A.U. after    9 cycles
 SCF Done:  E(RB3LYP) =  -544.461744881     A.U. after    9 cycles
 SCF Done:  E(RB3LYP) =  -544.464490399     A.U. after    9 cycles
 SCF Done:  E(RB3LYP) =  -544.461588874     A.U. after    9 cycles
 SCF Done:  E(RB3LYP) =  -544.464563934     A.U. after    5 cycles
 SCF Done:  E(RB3LYP) =  -544.464572169     A.U. after    8 cycles
 SCF Done:  E(RB3LYP) =  -544.464575067     A.U. after    7 cycles
 SCF Done:  E(RB3LYP) =  -544.464576462     A.U. after    7 cycles
 SCF Done:  E(RB3LYP) =  -544.464576617     A.U. after    6 cycles
 SCF Done:  E(RB3LYP) =  -544.464576639     A.U. after    6 cycles
 Optimization completed on the basis of negligible forces.
    -- Stationary point found.
 Normal termination of Gaussian 16 at Mon Jul 18 21:13:21 2022.

 ----------------------------------------------------------------------
 #N Geom=AllCheck Guess=TCheck SCRF=Check Test GenChk RB3LYP/Aug-CC-pVD
 Z Freq
 ----------------------------------------------------------------------

 Structure from the checkpoint file:  "sim005_type3_coord-5_0-5-0_10C_b1_id81779_step2120.chk"
 -----------------------------------------------------------
 MD frame sim005_type3_coord-5_0-5-0_10C_b1_id81779_step2120
 -----------------------------------------------------------
 Charge =  1 Multiplicity = 1

                         Standard orientation:
 ---------------------------------------------------------------------
 Center     Atomic      Atomic             Coordinates (Angstroms)
 Number     Number       Type             X           Y           Z
 ---------------------------------------------------------------------
      1          8           0       -1.414084   -1.172326   -1.218640
      2          8           0       -1.273441   -0.624444    1.627652
      3          8           0        2.186381   -1.347723   -0.049557
      4          1           0       -1.745791   -1.329322    1.161294
      5          1           0       -1.362221   -0.818185    2.569002
      6          1           0        2.544359   -1.818975   -0.813626
      7          1           0        2.478950   -1.862945    0.713956
      8          1           0       -2.035875   -0.466588   -1.450584
      9          1           0       -1.551150   -1.876168   -1.864370
     10          8           0        1.996149    1.588523   -0.017754
     11          8           0       -1.732105    1.503339   -0.296701
     12          1           0        2.847852    1.132781    0.000796
     13          1           0        2.197729    2.531727   -0.000736
     14          1           0       -2.167243    1.359482    0.555886
     15          1           0       -2.001419    2.383101   -0.588668
     16         11           0        0.244692    0.107831   -0.058450
 ---------------------------------------------------------------------

 SCF Done:  E(RB3LYP) =  -544.464576639     A.U. after    1 cycles

 The electronic state is 1-A.
 Alpha  occ. eigenvalues --  -38.58569 -19.31835 -19.31193 -19.31062 -19.30949
 Alpha  occ. eigenvalues --  -19.30524  -2.32066  -1.25406  -1.25378  -1.25309
 Alpha  occ. eigenvalues --   -1.17995  -1.17669  -1.17072  -1.16881  -1.16678
 Alpha  occ. eigenvalues --   -0.69950  -0.69483  -0.68852  -0.68715  -0.68686
 Alpha  occ. eigenvalues --   -0.57409  -0.56456  -0.55715  -0.55639  -0.55498
 Alpha  occ. eigenvalues --   -0.48516  -0.47982  -0.47893  -0.47800  -0.47199
 Alpha virt. eigenvalues --   -0.16436  -0.14037  -0.12740  -0.12145  -0.10729
 Alpha virt. eigenvalues --   -0.08283  -0.07646  -0.07238  -0.07125  -0.06413
 Alpha virt. eigenvalues --   -0.05792  -0.05333  -0.05173  -0.04914  -0.04866

 Mulliken charges:
               1
     1  O   -0.379476
     2  O   -0.402031
     3  O   -0.363366
     4  H    0.209478
     5  H    0.205403
     6  H    0.194264
     7  H    0.199478
     8  H    0.196861
     9  H    0.204440
    10  O   -0.312503
    11  O   -0.428529
    12  H    0.162408
    13  H    0.181574
    14  H    0.201005
    15  H    0.220863
    16  Na   0.910130
 Sum of Mulliken charges =   1.00000

 Dipole moment (field-independent basis, Debye):
    X=              0.4596    Y=             -0.7407    Z=              0.1334  Tot=              0.8819
 Quadrupole moment (field-independent basis, Debye-Ang):
   XX=             -8.7645   YY=            -14.8398   ZZ=            -24.4204
   XY=             -2.4404   XZ=             -0.1360   YZ=              0.0279

  Exact polarizability:  46.144  -0.706  49.335   0.185   0.144  46.593
 Approx polarizability:  54.015  -1.306  58.827   0.121   0.140  57.528

                      1                      2                      3
                      A                      A                      A
 Frequencies --     15.9737                43.7440                48.1873
 Red. masses --      4.2826                 4.6500                 4.7053
 Frc consts  --      0.0006                 0.0052                 0.0064
 IR Inten    --      0.1659                 1.1631                 1.2955

                      4                      5                      6
                      A                      A                      A
 Frequencies --     71.2478                85.7090                98.7027
 Red. masses --      4.3136                 4.3398                 4.1025
 Frc consts  --      0.0129                 0.0188                 0.0235
 IR Inten    --      1.9674                 7.1523                 7.1234

                      7                      8                      9
                      A                      A                      A
 Frequencies --    100.1307               116.3735               153.5945
 Red. masses --      3.8197                 1.0897                 4.8298
 Frc consts  --      0.0226                 0.0087                 0.0671
 IR Inten    --     13.6985                 0.4040                 2.9312

                     10                     11                     12
                      A                      A                      A
 Frequencies --    181.7996               190.3887               203.3077
 Red. masses --      5.5319                 5.7223                 5.2479
 Frc consts  --      0.1077                 0.1222                 0.1278
 IR Inten    --      0.0415                 2.3075                 0.4021

                     13                     14                     15
                      A                      A                      A
 Frequencies --    253.0908               257.9410               269.2829
 Red. masses --      1.1446                 1.1720                 1.1831
 Frc consts  --      0.0432                 0.0459                 0.0505
 IR Inten    --     43.8273                46.3793                94.3397

                     16                     17                     18
                      A                      A                      A
 Frequencies --    276.2855               303.3404               320.1588
 Red. masses --      5.7054                 1.0920                 1.1874
 Frc consts  --      0.2566                 0.0592                 0.0717
 IR Inten    --      9.8321                14.5644                50.6933

                     19                     20                     21
                      A                      A                      A
 Frequencies --    344.1043               355.6961               356.5013
 Red. masses --      1.1591                 1.1287                 1.0895
 Frc consts  --      0.0809                 0.0841                 0.0816
 IR Inten    --    431.9593                31.2535                26.0351

                     22                     23                     24
                      A                      A                      A
 Frequencies --    372.9344               383.8731               385.6653
 Red. masses --      1.1476                 1.2991                 1.1131
 Frc consts  --      0.0940                 0.1128                 0.0975
 IR Inten    --    118.6856                21.4102               132.5367

                     25                     26                     27
                      A                      A                      A
 Frequencies --    418.0561               433.0981               548.6421
 Red. masses --      1.1429                 1.1206                 1.0464
 Frc consts  --      0.1177                 0.1238                 0.1856
 IR Inten    --    288.7253               207.2811               154.2623

                     28                     29                     30
                      A                      A                      A
 Frequencies --   1604.6601              1615.0905              1616.9151
 Red. masses --      1.0844                 1.0817                 1.0816
 Frc consts  --      1.6451                 1.6625                 1.6660
 IR Inten    --    115.1079               113.5951               107.7693

                     31                     32                     33
                      A                      A                      A
 Frequencies --   1617.9071              1638.9933              3753.9805
 Red. masses --      1.0843                 1.0819                 1.0481
 Frc consts  --      1.6723                 1.7123                 8.7022
 IR Inten    --    109.1513                86.3963                47.8465

                     34                     35                     36
                      A                      A                      A
 Frequencies --   3764.1524              3768.0211              3781.6648
 Red. masses --      1.0470                 1.0465                 1.0459
 Frc consts  --      8.7402                 8.7541                 8.8129
 IR Inten    --     40.1170                33.2237                40.7112

                     37                     38                     39
                      A                      A                      A
 Frequencies --   3789.3331              3873.8543              3875.4776
 Red. masses --      1.0457                 1.0817                 1.0803
 Frc consts  --      8.8468                 9.5637                 9.5594
 IR Inten    --     24.1502                74.2147               172.2957

                     40                     41                     42
                      A                      A                      A
 Frequencies --   3876.3532              3876.5760              3891.8075
 Red. masses --      1.0813                 1.0809                 1.0823
 Frc consts  --      9.5728                 9.5707                 9.6583
 IR Inten    --    206.8206                50.6432               126.5631

 - Thermochemistry -
 -------------------
 Temperature   298.150 Kelvin.  Pressure   1.00000 Atm.
 Atom     1 has atomic number  8 and mass  15.99491

 Molecular mass:   113.04259 amu.
 Principal axes and moments of inertia in atomic units:
                           1         2         3
     Eigenvalues --   876.930351345.164281628.34003
           X            0.99998  -0.00677   0.00001
           Y            0.00677   0.99998   0.00043
           Z           -0.00002  -0.00043   1.00000
 This molecule is an asymmetric top.
 Rotational symmetry number  1.
 Warning -- assumption of classical behavior for rotation
           may cause significant error
 Rotational temperatures (Kelvin)      0.09877     0.06439     0.05319
 Rotational constants (GHZ):           2.05802     1.34165     1.10833
 Zero-point vibrational energy     316607.4 (Joules/Mol)
                                   75.67097 (Kcal/Mol)
 Warning -- explicit consideration of  27 degrees of freedom as
           vibrations may cause significant error
 Vibrational temperatures:     22.98    62.94    69.33   102.51   123.32
          (Kelvin)            142.01   144.07   167.44   220.99   261.57
                              273.93   292.51   364.14   371.12   387.44
                              397.51   436.44   460.64   495.09   511.77
                              512.93   536.57   552.31   554.89   601.49
                              623.13   789.37  2308.75  2323.75  2326.38
                             2327.81  2358.15  5401.14  5415.78  5421.34
                             5440.97  5452.01  5573.61  5575.95  5577.21
                             5577.53  5599.44

 Zero-point correction=                           0.120589 (Hartree/Particle)
 Thermal correction to Energy=                    0.137623
 Thermal correction to Enthalpy=                  0.138567
 Thermal correction to Gibbs Free Energy=         0.076055
 Sum of electronic and zero-point Energies=           -544.343987
 Sum of electronic and thermal Energies=              -544.326954
 Sum of electronic and thermal Enthalpies=            -544.326010
 Sum of electronic and thermal Free Energies=         -544.388522

                     E (Thermal)             CV                S
                      KCal/Mol        Cal/Mol-Kelvin    Cal/Mol-Kelvin
 Total                   86.360             52.839            131.567
 Electronic               0.000              0.000              0.000
 Translational            0.889              2.981             40.083
 Rotational               0.889              2.981             29.042
 Vibrational             84.582             46.877             62.442
 Vibration     1          0.593              1.986              7.081
 Vibration     2          0.595              1.980              5.082
 Vibration     3          0.595              1.978              4.890
 Vibration     4          0.598              1.968              4.119
 Vibration     5          0.601              1.959              3.756
 Vibration     6          0.604              1.950              3.480
 Vibration     7          0.604              1.949              3.452
 Vibration     8          0.608              1.936              3.160
 Vibration     9          0.619              1.899              2.627
 Vibration    10          0.630              1.865              2.310
 Vibration    11          0.634              1.853              2.224
 Vibration    12          0.639              1.835              2.103
 Vibration    13          0.664              1.758              1.709
 Vibration    14          0.667              1.749              1.676
 Vibration    15          0.674              1.730              1.601
 Vibration    16          0.678              1.717              1.557
 Vibration    17          0.695              1.667              1.398
 Vibration    18          0.706              1.635              1.309
 Vibration    19          0.723              1.587              1.193
 Vibration    20          0.731              1.564              1.141
 Vibration    21          0.732              1.562              1.137
 Vibration    22          0.744              1.528              1.068
 Vibration    23          0.753              1.505              1.024
 Vibration    24          0.754              1.501              1.017
 Vibration    25          0.781              1.431              0.899
 Vibration    26          0.794              1.398              0.849
 Vibration    27          0.904              1.143              0.547

 Optimization completed on the basis of negligible forces.
    -- Stationary point found.
 Normal termination of Gaussian 16 at Mon Jul 18 21:14:57 2022.
