 Gaussian 16, Revision B.01,
 Gaussian 16:  ES64L-G16RevB.01 20-Dec-2017

 ----------------------------------------------------------------------
 # opt=(calcall,maxcycles=500,maxstep=10,cartesian) freq iop(1/152=500,
 1/8=10) scf=(maxcycle=500) int(Acc2E=11,grid=ultrafine) rb3lyp/aug-cc-
 pvdz empiricaldispersion=gd3
 ----------------------------------------------------------------------

 -----------------------------------------------------------
 MD frame sim010_type3_coord-5_1-4-0_10C_b1_id81750_step4840
 -----------------------------------------------------------
 Symbolic Z-matrix:
 Charge =  1 Multiplicity = 1

 SCF Done:  E(RB3LYP) =  -544.443415836     A.U. after   10 cycles
 SCF Done:  E(RB3LYP) =  -544.444972392     A.U. after    8 cycles
 SCF Done:  E(RB3LYP) =  -544.447659285     A.U. after    9 cycles
 SCF Done:  E(RB3LYP) =  -544.449836133     A.U. after    9 cycles
 SCF Done:  E(RB3LYP) =  -544.451424913     A.U. after    9 cycles
 SCF Done:  E(RB3LYP) =  -544.453354411     A.U. after    9 cycles
 SCF Done:  E(RB3LYP) =  -544.455469597     A.U. after    9 cycles
 SCF Done:  E(RB3LYP) =  -544.456920705     A.U. after    9 cycles
 SCF Done:  E(RB3LYP) =  -544.458894704     A.U. after    8 cycles
 SCF Done:  E(RB3LYP) =  -544.460871763     A.U. after    9 cycles
 SCF Done:  E(RB3LYP) =  -544.464693871     A.U. after    9 cycles
 SCF Done:  E(RB3LYP) =  -544.467386188     A.U. after    5 cycles
 SCF Done:  E(RB3LYP) =  -544.467278073     A.U. after    8 cycles
 SCF Done:  E(RB3LYP) =  -544.467378439     A.U. after    8 cycles
 SCF Done:  E(RB3LYP) =  -544.467386555     A.U. after    5 cycles
 SCF Done:  E(RB3LYP) =  -544.467387224     A.U. after    8 cycles
 SCF Done:  E(RB3LYP) =  -544.467388185     A.U. after    8 cycles
 SCF Done:  E(RB3LYP) =  -544.467388194     A.U. after    7 cycles
 SCF Done:  E(RB3LYP) =  -544.467388235     A.U. after    6 cycles
 Optimization completed.
    -- Stationary point found.
 Normal termination of Gaussian 16 at Mon Jul 18 21:37:01 2022.

 ----------------------------------------------------------------------
 #N Geom=AllCheck Guess=TCheck SCRF=Check Test GenChk RB3LYP/Aug-CC-pVD
 Z Freq
 ----------------------------------------------------------------------

 Structure from the checkpoint file:  "sim010_type3_coord-5_1-4-0_10C_b1_id81750_step4840.chk"
 -----------------------------------------------------------
 MD frame sim010_type3_coord-5_1-4-0_10C_b1_id81750_step4840
 -----------------------------------------------------------
 Charge =  1 Multiplicity = 1

                         Standard orientation:
 ---------------------------------------------------------------------
 Center     Atomic      Atomic             Coordinates (Angstroms)
 Number     Number       Type             X           Y           Z
 ---------------------------------------------------------------------
      1          8           0        0.517240   -1.301659    1.366445
      2          1           0        0.407063   -1.617460    2.273152
      3          1           0        0.638671   -2.093309    0.821853
      4          8           0        2.528701    0.290744    0.022030
      5          1           0        3.489672    0.382229    0.043873
      6          1           0        2.278318   -0.220705    0.809047
      7          8           0        0.587160   -1.071270   -1.473629
      8          1           0        0.607088   -1.406249   -2.377786
      9          1           0        1.458913   -0.666427   -1.307611
     10          8           0       -3.157772    0.000477    0.015180
     11          1           0       -3.742609   -0.695210   -0.312229
     12          1           0       -3.752750    0.681680    0.355255
     13          8           0        0.339296    2.022365    0.119780
     14          1           0        1.282823    1.785052    0.074004
     15          1           0        0.292051    2.983778    0.160037
     16         11           0       -0.861477    0.121942   -0.085277
 ---------------------------------------------------------------------

 SCF Done:  E(RB3LYP) =  -544.467388235     A.U. after    1 cycles

 The electronic state is 1-A.
 Alpha  occ. eigenvalues --  -38.59542 -19.32778 -19.32142 -19.31666 -19.30433
 Alpha  occ. eigenvalues --  -19.29598  -2.33113  -1.26434  -1.26395  -1.26389
 Alpha  occ. eigenvalues --   -1.19006  -1.18268  -1.17940  -1.16451  -1.15717
 Alpha  occ. eigenvalues --   -0.71182  -0.69964  -0.69871  -0.68394  -0.68114
 Alpha  occ. eigenvalues --   -0.58027  -0.57563  -0.56480  -0.55495  -0.54801
 Alpha  occ. eigenvalues --   -0.49718  -0.48679  -0.48527  -0.47582  -0.46432
 Alpha virt. eigenvalues --   -0.16590  -0.14190  -0.12630  -0.11860  -0.10625
 Alpha virt. eigenvalues --   -0.08298  -0.07736  -0.07268  -0.06725  -0.06332
 Alpha virt. eigenvalues --   -0.05648  -0.05341  -0.05076  -0.04865  -0.04677

 Mulliken charges:
               1
     1  O   -0.404238
     2  H    0.213788
     3  H    0.203034
     4  O   -0.480765
     5  H    0.202309
     6  H    0.220781
     7  O   -0.340644
     8  H    0.191980
     9  H    0.203231
    10  O   -0.288837
    11  H    0.176306
    12  H    0.168924
    13  O   -0.321547
    14  H    0.188951
    15  H    0.181779
    16  Na   0.884949
 Sum of Mulliken charges =   1.00000

 Dipole moment (field-independent basis, Debye):
    X=             -0.9242    Y=             -1.0003    Z=              0.6777  Tot=              1.5212
 Quadrupole moment (field-independent basis, Debye-Ang):
   XX=             -0.7205   YY=            -21.1600   ZZ=            -26.7909
   XY=             -0.1792   XZ=              0.6023   YZ=             -0.2241

  Exact polarizability:  49.319   0.310  47.481   0.235   0.567  45.840
 Approx polarizability:  58.047   0.489  57.219  -0.174   1.457  55.676

                      1                      2                      3
                      A                      A                      A
 Frequencies --     29.7660                34.9046                50.4307
 Red. masses --      4.6104                 4.8847                 1.1894
 Frc consts  --      0.0024                 0.0035                 0.0018
 IR Inten    --      0.4005                 1.1343                 0.3131

                      4                      5                      6
                      A                      A                      A
 Frequencies --     62.9113                75.4933                97.0262
 Red. masses --      3.0973                 5.2186                 3.7540
 Frc consts  --      0.0072                 0.0175                 0.0208
 IR Inten    --      0.5070                 2.4182                13.9688

                      7                      8                      9
                      A                      A                      A
 Frequencies --    108.4794               159.5731               172.2712
 Red. masses --      4.9345                 4.4097                 4.6904
 Frc consts  --      0.0342                 0.0662                 0.0820
 IR Inten    --     11.1065                 7.4634                 3.2879

                     10                     11                     12
                      A                      A                      A
 Frequencies --    199.2210               208.4834               217.2365
 Red. masses --      5.1009                 3.4313                 1.2811
 Frc consts  --      0.1193                 0.0879                 0.0356
 IR Inten    --      0.4908                12.9819                75.9744

                     13                     14                     15
                      A                      A                      A
 Frequencies --    249.7476               274.8568               286.9293
 Red. masses --      6.2104                 1.2880                 2.7217
 Frc consts  --      0.2282                 0.0573                 0.1320
 IR Inten    --      3.9624                53.8968                64.8560

                     16                     17                     18
                      A                      A                      A
 Frequencies --    289.1510               305.8928               332.6674
 Red. masses --      1.5903                 1.1850                 1.1586
 Frc consts  --      0.0783                 0.0653                 0.0755
 IR Inten    --     38.6341               155.4700               109.2005

                     19                     20                     21
                      A                      A                      A
 Frequencies --    345.5435               364.9392               401.4870
 Red. masses --      1.1521                 1.1597                 1.1061
 Frc consts  --      0.0810                 0.0910                 0.1050
 IR Inten    --    170.9975                 4.4701               106.0768

                     22                     23                     24
                      A                      A                      A
 Frequencies --    434.8807               476.5335               500.9858
 Red. masses --      1.0946                 1.0898                 1.1091
 Frc consts  --      0.1220                 0.1458                 0.1640
 IR Inten    --    224.6343                69.2158               251.4187

                     25                     26                     27
                      A                      A                      A
 Frequencies --    551.2798               625.7991               708.4936
 Red. masses --      1.1363                 1.0529                 1.0479
 Frc consts  --      0.2035                 0.2430                 0.3099
 IR Inten    --    129.3129               124.0209               114.7021

                     28                     29                     30
                      A                      A                      A
 Frequencies --   1601.6648              1614.8808              1620.9526
 Red. masses --      1.0810                 1.0817                 1.0762
 Frc consts  --      1.6339                 1.6620                 1.6661
 IR Inten    --    100.0275               115.3969                58.0957

                     31                     32                     33
                      A                      A                      A
 Frequencies --   1635.5863              1643.5248              3628.5069
 Red. masses --      1.0756                 1.0820                 1.0576
 Frc consts  --      1.6953                 1.7220                 8.2042
 IR Inten    --    111.0018                83.1251               187.8249

                     34                     35                     36
                      A                      A                      A
 Frequencies --   3653.8757              3712.6642              3758.5409
 Red. masses --      1.0561                 1.0513                 1.0460
 Frc consts  --      8.3076                 8.5378                 8.7060
 IR Inten    --    336.3035               165.5519                26.5726

                     37                     38                     39
                      A                      A                      A
 Frequencies --   3787.6123              3856.0164              3862.2858
 Red. masses --      1.0461                 1.0773                 1.0728
 Frc consts  --      8.8417                 9.4380                 9.4288
 IR Inten    --     41.3776               168.8518               196.4359

                     40                     41                     42
                      A                      A                      A
 Frequencies --   3863.2820              3876.3742              3877.1482
 Red. masses --      1.0811                 1.0811                 1.0733
 Frc consts  --      9.5065                 9.5715                 9.5057
 IR Inten    --     66.1272                77.6349               190.6530

 - Thermochemistry -
 -------------------
 Temperature   298.150 Kelvin.  Pressure   1.00000 Atm.
 Atom     1 has atomic number  8 and mass  15.99491

 Molecular mass:   113.04259 amu.
 Principal axes and moments of inertia in atomic units:
                           1         2         3
     Eigenvalues --   766.427901500.650171701.19936
           X            1.00000   0.00139   0.00007
           Y           -0.00138   0.99999  -0.00476
           Z           -0.00008   0.00476   0.99999
 This molecule is an asymmetric top.
 Rotational symmetry number  1.
 Warning -- assumption of classical behavior for rotation
           may cause significant error
 Rotational temperatures (Kelvin)      0.11301     0.05772     0.05091
 Rotational constants (GHZ):           2.35474     1.20264     1.06086
 Zero-point vibrational energy     320347.4 (Joules/Mol)
                                   76.56486 (Kcal/Mol)
 Warning -- explicit consideration of  25 degrees of freedom as
           vibrations may cause significant error
 Vibrational temperatures:     42.83    50.22    72.56    90.52   108.62
          (Kelvin)            139.60   156.08   229.59   247.86   286.63
                              299.96   312.55   359.33   395.46   412.83
                              416.02   440.11   478.63   497.16   525.07
                              577.65   625.70   685.63   720.81   793.17
                              900.39  1019.36  2304.44  2323.45  2332.19
                             2353.24  2364.67  5220.61  5257.11  5341.70
                             5407.70  5449.53  5547.95  5556.97  5558.40
                             5577.24  5578.35

 Zero-point correction=                           0.122014 (Hartree/Particle)
 Thermal correction to Energy=                    0.138175
 Thermal correction to Enthalpy=                  0.139120
 Thermal correction to Gibbs Free Energy=         0.078643
 Sum of electronic and zero-point Energies=           -544.345374
 Sum of electronic and thermal Energies=              -544.329213
 Sum of electronic and thermal Enthalpies=            -544.328269
 Sum of electronic and thermal Free Energies=         -544.388745

                     E (Thermal)             CV                S
                      KCal/Mol        Cal/Mol-Kelvin    Cal/Mol-Kelvin
 Total                   86.706             50.846            127.283
 Electronic               0.000              0.000              0.000
 Translational            0.889              2.981             40.083
 Rotational               0.889              2.981             29.060
 Vibrational             84.929             44.884             58.140
 Vibration     1          0.594              1.984              5.845
 Vibration     2          0.594              1.983              5.529
 Vibration     3          0.595              1.977              4.800
 Vibration     4          0.597              1.972              4.364
 Vibration     5          0.599              1.965              4.005
 Vibration     6          0.603              1.951              3.513
 Vibration     7          0.606              1.942              3.296
 Vibration     8          0.621              1.892              2.555
 Vibration     9          0.626              1.877              2.411
 Vibration    10          0.637              1.841              2.140
 Vibration    11          0.642              1.828              2.057
 Vibration    12          0.646              1.815              1.982
 Vibration    13          0.663              1.763              1.732
 Vibration    14          0.677              1.720              1.565
 Vibration    15          0.684              1.698              1.492
 Vibration    16          0.686              1.694              1.479
 Vibration    17          0.696              1.663              1.384
 Vibration    18          0.715              1.610              1.247
 Vibration    19          0.724              1.584              1.186
 Vibration    20          0.738              1.544              1.101
 Vibration    21          0.767              1.467              0.957
 Vibration    22          0.795              1.394              0.843
 Vibration    23          0.833              1.302              0.719
 Vibration    24          0.856              1.248              0.656
 Vibration    25          0.907              1.137              0.542

 Optimization completed.
    -- Stationary point found.
 Normal termination of Gaussian 16 at Mon Jul 18 21:38:38 2022.
