 Gaussian 16, Revision B.01,
 Gaussian 16:  ES64L-G16RevB.01 20-Dec-2017

 ----------------------------------------------------------------------
 # opt=(calcall,maxcycles=500,maxstep=10,cartesian) freq iop(1/152=500,
 1/8=10) scf=(maxcycle=500) int(Acc2E=11,grid=ultrafine) rb3lyp/aug-cc-
 pvdz empiricaldispersion=gd3
 ----------------------------------------------------------------------

 -----------------------------------------------------------
 MD frame sim001_type3_coord-5_0-5-0_10C_b1_id81779_step4600
 -----------------------------------------------------------
 Symbolic Z-matrix:
 Charge =  1 Multiplicity = 1

 SCF Done:  E(RB3LYP) =  -544.439911176     A.U. after   10 cycles
 SCF Done:  E(RB3LYP) =  -544.441456794     A.U. after    8 cycles
 SCF Done:  E(RB3LYP) =  -544.444194168     A.U. after    9 cycles
 SCF Done:  E(RB3LYP) =  -544.446115875     A.U. after    9 cycles
 SCF Done:  E(RB3LYP) =  -544.447429247     A.U. after    9 cycles
 SCF Done:  E(RB3LYP) =  -544.449457116     A.U. after    9 cycles
 SCF Done:  E(RB3LYP) =  -544.451602492     A.U. after    9 cycles
 SCF Done:  E(RB3LYP) =  -544.456448450     A.U. after    9 cycles
 SCF Done:  E(RB3LYP) =  -544.457572381     A.U. after    9 cycles
 SCF Done:  E(RB3LYP) =  -544.460203781     A.U. after    9 cycles
 SCF Done:  E(RB3LYP) =  -544.463809404     A.U. after    9 cycles
 SCF Done:  E(RB3LYP) =  -544.463856457     A.U. after    8 cycles
 SCF Done:  E(RB3LYP) =  -544.463872490     A.U. after    8 cycles
 SCF Done:  E(RB3LYP) =  -544.463878814     A.U. after    7 cycles
 SCF Done:  E(RB3LYP) =  -544.463879415     A.U. after    6 cycles
 SCF Done:  E(RB3LYP) =  -544.463878631     A.U. after    7 cycles
 SCF Done:  E(RB3LYP) =  -544.463880230     A.U. after    7 cycles
 SCF Done:  E(RB3LYP) =  -544.463880567     A.U. after    6 cycles
 SCF Done:  E(RB3LYP) =  -544.463880564     A.U. after    6 cycles
 Optimization completed on the basis of negligible forces.
    -- Stationary point found.
 Normal termination of Gaussian 16 at Mon Jul 18 21:02:11 2022.

 ----------------------------------------------------------------------
 #N Geom=AllCheck Guess=TCheck SCRF=Check Test GenChk RB3LYP/Aug-CC-pVD
 Z Freq
 ----------------------------------------------------------------------

 Structure from the checkpoint file:  "sim001_type3_coord-5_0-5-0_10C_b1_id81779_step4600.chk"
 -----------------------------------------------------------
 MD frame sim001_type3_coord-5_0-5-0_10C_b1_id81779_step4600
 -----------------------------------------------------------
 Charge =  1 Multiplicity = 1

                         Standard orientation:
 ---------------------------------------------------------------------
 Center     Atomic      Atomic             Coordinates (Angstroms)
 Number     Number       Type             X           Y           Z
 ---------------------------------------------------------------------
      1          8           0       -2.178551   -1.080461    0.412177
      2          1           0       -2.698098   -1.395610   -0.339197
      3          1           0       -1.501945    2.635468    0.940265
      4          1           0       -2.437911   -1.650703    1.147888
      5          1           0        2.442313    1.645578    1.146859
      6          1           0        2.699520    1.396955   -0.341806
      7          1           0        1.506649   -2.639737    0.924510
      8          8           0        1.424583   -1.704711    0.703240
      9          8           0        2.181520    1.078477    0.409228
     10          8           0       -1.420531    1.701508    0.714304
     11          1           0       -2.291187    1.309658    0.865999
     12          1           0        2.295944   -1.313800    0.853277
     13          8           0       -0.007815    0.005468   -2.266786
     14          1           0       -0.399583    0.668095   -2.849903
     15          1           0        0.380424   -0.652229   -2.857785
     16         11           0        0.000929   -0.000538    0.066599
 ---------------------------------------------------------------------

 SCF Done:  E(RB3LYP) =  -544.463880564     A.U. after    1 cycles

 The electronic state is 1-A.
 Alpha  occ. eigenvalues --  -38.57484 -19.31346 -19.31345 -19.31206 -19.30104
 Alpha  occ. eigenvalues --  -19.30104  -2.31040  -1.24391  -1.24365  -1.24300
 Alpha  occ. eigenvalues --   -1.17567  -1.17454  -1.17338  -1.16312  -1.16196
 Alpha  occ. eigenvalues --   -0.69034  -0.69011  -0.68995  -0.68385  -0.68356
 Alpha  occ. eigenvalues --   -0.57241  -0.56236  -0.56148  -0.55125  -0.55062
 Alpha  occ. eigenvalues --   -0.48126  -0.47955  -0.47640  -0.46824  -0.46777
 Alpha virt. eigenvalues --   -0.16261  -0.13837  -0.12981  -0.12434  -0.10614
 Alpha virt. eigenvalues --   -0.07974  -0.07969  -0.07729  -0.07160  -0.06198
 Alpha virt. eigenvalues --   -0.05638  -0.05204  -0.05033  -0.04863  -0.04838

 Mulliken charges:
               1
     1  O   -0.408974
     2  H    0.201996
     3  H    0.182261
     4  H    0.206204
     5  H    0.206016
     6  H    0.202128
     7  H    0.182226
     8  O   -0.307812
     9  O   -0.408548
    10  O   -0.307863
    11  H    0.165702
    12  H    0.165697
    13  O   -0.411640
    14  H    0.198146
    15  H    0.198208
    16  Na   0.936253
 Sum of Mulliken charges =   1.00000

 Dipole moment (field-independent basis, Debye):
    X=             -0.0005    Y=              0.0034    Z=             -0.6131  Tot=              0.6131
 Quadrupole moment (field-independent basis, Debye-Ang):
   XX=             -9.4393   YY=            -15.4926   ZZ=            -19.8019
   XY=              3.1786   XZ=              0.0070   YZ=             -0.0012

  Exact polarizability:  46.923   0.770  49.154  -0.002   0.006  45.752
 Approx polarizability:  55.057   1.185  58.535   0.001   0.006  56.018

                      1                      2                      3
                      A                      A                      A
 Frequencies --      9.5886                20.2392                27.2447
 Red. masses --      4.4054                 4.1432                 4.5140
 Frc consts  --      0.0002                 0.0010                 0.0020
 IR Inten    --      0.7281                 1.7754                 0.4477

                      4                      5                      6
                      A                      A                      A
 Frequencies --     34.3219                54.9438                78.2865
 Red. masses --      4.7018                 4.7365                 4.6606
 Frc consts  --      0.0033                 0.0084                 0.0168
 IR Inten    --      0.0186                 3.1657                 0.0705

                      7                      8                      9
                      A                      A                      A
 Frequencies --    100.3871               141.0750               151.1054
 Red. masses --      4.1540                 2.3517                 1.3843
 Frc consts  --      0.0247                 0.0276                 0.0186
 IR Inten    --     10.5434                 1.5352                 0.1307

                     10                     11                     12
                      A                      A                      A
 Frequencies --    160.3547               187.0890               190.1855
 Red. masses --      1.0572                 6.9365                 4.9234
 Frc consts  --      0.0160                 0.1430                 0.1049
 IR Inten    --      0.9115                 2.0317                 0.0938

                     13                     14                     15
                      A                      A                      A
 Frequencies --    194.4542               222.6664               237.2384
 Red. masses --      1.0144                 5.5208                 1.1058
 Frc consts  --      0.0226                 0.1613                 0.0367
 IR Inten    --      0.9079                 3.5937                18.3535

                     16                     17                     18
                      A                      A                      A
 Frequencies --    252.7442               262.3554               275.7247
 Red. masses --      1.1362                 3.1967                 1.3044
 Frc consts  --      0.0428                 0.1296                 0.0584
 IR Inten    --    174.5557                 2.5736                96.7322

                     19                     20                     21
                      A                      A                      A
 Frequencies --    307.7720               317.3943               324.4200
 Red. masses --      1.2066                 1.1916                 1.1411
 Frc consts  --      0.0673                 0.0707                 0.0708
 IR Inten    --     12.4792                34.3517                97.0322

                     22                     23                     24
                      A                      A                      A
 Frequencies --    332.0024               350.8592               365.8923
 Red. masses --      1.1818                 1.2932                 1.1591
 Frc consts  --      0.0768                 0.0938                 0.0914
 IR Inten    --    109.3626               294.6189                 8.5836

                     25                     26                     27
                      A                      A                      A
 Frequencies --    388.2989               416.0900               421.9112
 Red. masses --      1.2039                 1.0910                 1.0943
 Frc consts  --      0.1069                 0.1113                 0.1148
 IR Inten    --    387.1055               137.8006               267.4332

                     28                     29                     30
                      A                      A                      A
 Frequencies --   1613.4264              1614.2905              1634.2689
 Red. masses --      1.0841                 1.0840                 1.0834
 Frc consts  --      1.6626                 1.6643                 1.7048
 IR Inten    --    203.7935                23.4472                90.9616

                     31                     32                     33
                      A                      A                      A
 Frequencies --   1635.1083              1635.9884              3780.4388
 Red. masses --      1.0822                 1.0820                 1.0462
 Frc consts  --      1.7047                 1.7062                 8.8091
 IR Inten    --    181.9218                 5.3635               109.7802

                     34                     35                     36
                      A                      A                      A
 Frequencies --   3781.2288              3784.2390              3784.7067
 Red. masses --      1.0463                 1.0458                 1.0458
 Frc consts  --      8.8139                 8.8237                 8.8262
 IR Inten    --      2.2184                 2.6115                18.0541

                     37                     38                     39
                      A                      A                      A
 Frequencies --   3790.4174              3876.5570              3876.7475
 Red. masses --      1.0458                 1.0818                 1.0818
 Frc consts  --      8.8523                 9.5784                 9.5795
 IR Inten    --     34.1809                11.0478               203.9983

                     40                     41                     42
                      A                      A                      A
 Frequencies --   3885.1720              3891.3472              3891.5336
 Red. masses --      1.0821                 1.0817                 1.0818
 Frc consts  --      9.6234                 9.6511                 9.6529
 IR Inten    --    108.0208                 2.5962               254.2362

 - Thermochemistry -
 -------------------
 Temperature   298.150 Kelvin.  Pressure   1.00000 Atm.
 Atom     1 has atomic number  8 and mass  15.99491

 Molecular mass:   113.04259 amu.
 Principal axes and moments of inertia in atomic units:
                           1         2         3
     Eigenvalues --  1014.637421375.703631488.29772
           X            0.99994   0.01091   0.00002
           Y           -0.01091   0.99994  -0.00003
           Z           -0.00002   0.00003   1.00000
 This molecule is an asymmetric top.
 Rotational symmetry number  1.
 Warning -- assumption of classical behavior for rotation
           may cause significant error
 Rotational temperatures (Kelvin)      0.08536     0.06296     0.05820
 Rotational constants (GHZ):           1.77871     1.31187     1.21262
 Zero-point vibrational energy     312824.2 (Joules/Mol)
                                   74.76677 (Kcal/Mol)
 Warning -- explicit consideration of  27 degrees of freedom as
           vibrations may cause significant error
 Vibrational temperatures:     13.80    29.12    39.20    49.38    79.05
          (Kelvin)            112.64   144.43   202.98   217.41   230.71
                              269.18   273.63   279.78   320.37   341.33
                              363.64   377.47   396.71   442.82   456.66
                              466.77   477.68   504.81   526.44   558.68
                              598.66   607.04  2321.36  2322.60  2351.35
                             2352.56  2353.82  5439.21  5440.34  5444.68
                             5445.35  5453.57  5577.50  5577.78  5589.90
                             5598.78  5599.05

 Zero-point correction=                           0.119148 (Hartree/Particle)
 Thermal correction to Energy=                    0.137180
 Thermal correction to Enthalpy=                  0.138125
 Thermal correction to Gibbs Free Energy=         0.071051
 Sum of electronic and zero-point Energies=           -544.344732
 Sum of electronic and thermal Energies=              -544.326700
 Sum of electronic and thermal Enthalpies=            -544.325756
 Sum of electronic and thermal Free Energies=         -544.392830

                     E (Thermal)             CV                S
                      KCal/Mol        Cal/Mol-Kelvin    Cal/Mol-Kelvin
 Total                   86.082             54.106            141.169
 Electronic               0.000              0.000              0.000
 Translational            0.889              2.981             40.083
 Rotational               0.889              2.981             29.120
 Vibrational             84.305             48.145             71.965
 Vibration     1          0.593              1.987              8.095
 Vibration     2          0.593              1.986              6.611
 Vibration     3          0.593              1.984              6.021
 Vibration     4          0.594              1.983              5.563
 Vibration     5          0.596              1.976              4.631
 Vibration     6          0.600              1.964              3.933
 Vibration     7          0.604              1.949              3.447
 Vibration     8          0.615              1.912              2.789
 Vibration     9          0.619              1.901              2.658
 Vibration    10          0.622              1.891              2.546
 Vibration    11          0.632              1.858              2.256
 Vibration    12          0.634              1.853              2.226
 Vibration    13          0.635              1.848              2.185
 Vibration    14          0.648              1.807              1.937
 Vibration    15          0.656              1.784              1.823
 Vibration    16          0.664              1.758              1.711
 Vibration    17          0.670              1.742              1.646
 Vibration    18          0.677              1.718              1.560
 Vibration    19          0.698              1.659              1.374
 Vibration    20          0.704              1.640              1.323
 Vibration    21          0.709              1.627              1.288
 Vibration    22          0.714              1.612              1.250
 Vibration    23          0.728              1.573              1.162
 Vibration    24          0.739              1.542              1.097
 Vibration    25          0.756              1.495              1.007
 Vibration    26          0.779              1.435              0.905
 Vibration    27          0.784              1.423              0.886

 Optimization completed on the basis of negligible forces.
    -- Stationary point found.
 Normal termination of Gaussian 16 at Mon Jul 18 21:03:48 2022.
