 Gaussian 16, Revision B.01,
 Gaussian 16:  ES64L-G16RevB.01 20-Dec-2017

 ----------------------------------------------------------------------
 # geom=check scrf=(solvent=water,iefpcm,externaliteration,1stvac,read)
  rb3lyp/aug-cc-pvdz empiricaldispersion=gd3 scf=(maxcycle=500) int(Acc
 2E=11,grid=ultrafine)
 ----------------------------------------------------------------------

 -----------------------------------------------------------
 MD frame sim006_type3_coord-5_3-2-0_10C_b1_id81756_step1780
 -----------------------------------------------------------
 Structure from the checkpoint file:  "sim006_type3_coord-5_3-2-0_10C_b1_id81756_step1780_2.chk"
 Charge =  1 Multiplicity = 1

                         Standard orientation:
 ---------------------------------------------------------------------
 Center     Atomic      Atomic             Coordinates (Angstroms)
 Number     Number       Type             X           Y           Z
 ---------------------------------------------------------------------
      1          8           0        2.186381   -1.347633   -0.049278
      2          1           0        2.479829   -1.861956    0.714497
      3          1           0        2.543372   -1.819855   -0.813203
      4          8           0       -1.274417   -0.629330    1.625554
      5          1           0       -1.363788   -0.826123    2.566213
      6          1           0       -1.746194   -1.332878    1.156612
      7          8           0        1.996302    1.588631   -0.017209
      8          1           0        2.197926    2.531820   -0.000000
      9          1           0        2.848013    1.132858    0.000121
     10          8           0       -1.413344   -1.168567   -1.222470
     11          1           0       -2.034923   -0.461969   -1.452367
     12          1           0       -1.550251   -1.870271   -1.870555
     13          8           0       -1.732121    1.504128   -0.292377
     14          1           0       -2.167659    1.357538    0.559540
     15          1           0       -2.001407    2.384762   -0.581724
     16         11           0        0.244788    0.108022   -0.057536
 ---------------------------------------------------------------------

 SCF Done:  E(RB3LYP) =  -544.464576664     A.U. after   10 cycles
 SCF Done:  E(RB3LYP) =  -544.541951561     A.U. after    8 cycles
 SCF Done:  E(RB3LYP) =  -544.542179251     A.U. after    8 cycles
 SCF Done:  E(RB3LYP) =  -544.542191164     A.U. after    5 cycles
 SCF Done:  E(RB3LYP) =  -544.542192777     A.U. after    5 cycles
 SCF Done:  E(RB3LYP) =  -544.542193058     A.U. after    3 cycles

 The electronic state is 1-A.
 Alpha  occ. eigenvalues --  -38.43651 -19.17641 -19.17392 -19.17351 -19.17279
 Alpha  occ. eigenvalues --  -19.17218  -2.17113  -1.10514  -1.10389  -1.10377
 Alpha  occ. eigenvalues --   -1.03966  -1.03755  -1.03366  -1.03281  -1.03145
 Alpha  occ. eigenvalues --   -0.56182  -0.55378  -0.55212  -0.55071  -0.54990
 Alpha  occ. eigenvalues --   -0.43413  -0.42504  -0.41994  -0.41809  -0.41779
 Alpha  occ. eigenvalues --   -0.34483  -0.34279  -0.34146  -0.34063  -0.34055
 Alpha virt. eigenvalues --   -0.03697  -0.01687  -0.00989  -0.00460   0.01255
 Alpha virt. eigenvalues --    0.01835   0.01857   0.01963   0.02077   0.03435
 Alpha virt. eigenvalues --    0.03626   0.03958   0.04107   0.05602   0.05980

 Mulliken charges:
               1
     1  O   -0.399939
     2  H    0.210477
     3  H    0.205292
     4  O   -0.426598
     5  H    0.213088
     6  H    0.218225
     7  O   -0.358508
     8  H    0.190947
     9  H    0.174552
    10  O   -0.409568
    11  H    0.204953
    12  H    0.212740
    13  O   -0.458927
    14  H    0.210993
    15  H    0.228734
    16  Na   0.983541
 Sum of Mulliken charges =   1.00000

 Dipole moment (field-independent basis, Debye):
    X=              0.4928    Y=             -0.7916    Z=              0.1312  Tot=              0.9416
 Quadrupole moment (field-independent basis, Debye-Ang):
   XX=             -9.2903   YY=            -15.1819   ZZ=            -24.6023
   XY=             -2.5870   XZ=             -0.1611   YZ=              0.0272

 Normal termination of Gaussian 16 at Mon Jul 18 21:38:04 2022.
