 Gaussian 16, Revision B.01,
 Gaussian 16:  ES64L-G16RevB.01 20-Dec-2017

 ----------------------------------------------------------------------
 # opt=(calcall,maxcycles=500,maxstep=10,cartesian) freq iop(1/152=500,
 1/8=10) scf=(maxcycle=500) int(Acc2E=11,grid=ultrafine) rb3lyp/aug-cc-
 pvdz empiricaldispersion=gd3
 ----------------------------------------------------------------------

 -----------------------------------------------------------
 MD frame sim009_type3_coord-5_4-1-0_10C_b1_id81769_step4300
 -----------------------------------------------------------
 Symbolic Z-matrix:
 Charge =  1 Multiplicity = 1

 SCF Done:  E(RB3LYP) =  -544.453072746     A.U. after   10 cycles
 SCF Done:  E(RB3LYP) =  -544.454095969     A.U. after    7 cycles
 SCF Done:  E(RB3LYP) =  -544.455870685     A.U. after    9 cycles
 SCF Done:  E(RB3LYP) =  -544.457286823     A.U. after    9 cycles
 SCF Done:  E(RB3LYP) =  -544.457966980     A.U. after    8 cycles
 SCF Done:  E(RB3LYP) =  -544.459105179     A.U. after    9 cycles
 SCF Done:  E(RB3LYP) =  -544.459610909     A.U. after    9 cycles
 SCF Done:  E(RB3LYP) =  -544.461264175     A.U. after    9 cycles
 SCF Done:  E(RB3LYP) =  -544.462135306     A.U. after    9 cycles
 SCF Done:  E(RB3LYP) =  -544.462692305     A.U. after    9 cycles
 SCF Done:  E(RB3LYP) =  -544.464503605     A.U. after    8 cycles
 SCF Done:  E(RB3LYP) =  -544.464552360     A.U. after    8 cycles
 SCF Done:  E(RB3LYP) =  -544.464567043     A.U. after    9 cycles
 SCF Done:  E(RB3LYP) =  -544.464573876     A.U. after    8 cycles
 SCF Done:  E(RB3LYP) =  -544.464575510     A.U. after    7 cycles
 SCF Done:  E(RB3LYP) =  -544.464575837     A.U. after    6 cycles
 SCF Done:  E(RB3LYP) =  -544.464576421     A.U. after    7 cycles
 SCF Done:  E(RB3LYP) =  -544.464576550     A.U. after    6 cycles
 SCF Done:  E(RB3LYP) =  -544.464576597     A.U. after    6 cycles
 Optimization completed on the basis of negligible forces.
    -- Stationary point found.
 Normal termination of Gaussian 16 at Mon Jul 18 20:53:54 2022.

 ----------------------------------------------------------------------
 #N Geom=AllCheck Guess=TCheck SCRF=Check Test GenChk RB3LYP/Aug-CC-pVD
 Z Freq
 ----------------------------------------------------------------------

 Structure from the checkpoint file:  "sim009_type3_coord-5_4-1-0_10C_b1_id81769_step4300.chk"
 -----------------------------------------------------------
 MD frame sim009_type3_coord-5_4-1-0_10C_b1_id81769_step4300
 -----------------------------------------------------------
 Charge =  1 Multiplicity = 1

                         Standard orientation:
 ---------------------------------------------------------------------
 Center     Atomic      Atomic             Coordinates (Angstroms)
 Number     Number       Type             X           Y           Z
 ---------------------------------------------------------------------
      1          8           0       -1.414764   -1.176632   -1.214314
      2          1           0       -1.552101   -1.882855   -1.857382
      3          1           0       -2.036626   -0.471743   -1.448620
      4          8           0        1.995827    1.588461   -0.018274
      5          1           0       -2.166825    1.361763    0.551367
      6          8           0       -1.731935    1.502394   -0.301883
      7          1           0       -2.001143    2.381145   -0.596979
      8          1           0        2.847633    1.132918    0.000435
      9          1           0        2.197183    2.531714   -0.001219
     10          8           0        2.186589   -1.347773   -0.049869
     11          1           0        2.479249   -1.862722    0.713792
     12          1           0        2.544711   -1.819144   -0.813799
     13          1           0       -1.361000   -0.809076    2.572081
     14          8           0       -1.272762   -0.618785    1.629976
     15          1           0       -1.745651   -1.325186    1.166482
     16         11           0        0.244630    0.107443   -0.059203
 ---------------------------------------------------------------------

 SCF Done:  E(RB3LYP) =  -544.464576597     A.U. after    1 cycles

 The electronic state is 1-A.
 Alpha  occ. eigenvalues --  -38.58568 -19.31834 -19.31192 -19.31062 -19.30948
 Alpha  occ. eigenvalues --  -19.30523  -2.32064  -1.25405  -1.25377  -1.25308
 Alpha  occ. eigenvalues --   -1.17995  -1.17669  -1.17072  -1.16880  -1.16678
 Alpha  occ. eigenvalues --   -0.69949  -0.69483  -0.68852  -0.68715  -0.68686
 Alpha  occ. eigenvalues --   -0.57409  -0.56456  -0.55715  -0.55637  -0.55497
 Alpha  occ. eigenvalues --   -0.48516  -0.47982  -0.47892  -0.47799  -0.47199
 Alpha virt. eigenvalues --   -0.16436  -0.14038  -0.12739  -0.12145  -0.10729
 Alpha virt. eigenvalues --   -0.08284  -0.07646  -0.07238  -0.07124  -0.06413
 Alpha virt. eigenvalues --   -0.05793  -0.05333  -0.05174  -0.04914  -0.04865

 Mulliken charges:
               1
     1  O   -0.379566
     2  H    0.204492
     3  H    0.196869
     4  O   -0.312519
     5  H    0.200960
     6  O   -0.428400
     7  H    0.220818
     8  H    0.162385
     9  H    0.181563
    10  O   -0.363384
    11  H    0.199457
    12  H    0.194213
    13  H    0.205394
    14  O   -0.402129
    15  H    0.209397
    16  Na   0.910451
 Sum of Mulliken charges =   1.00000

 Dipole moment (field-independent basis, Debye):
    X=              0.4596    Y=             -0.7398    Z=              0.1339  Tot=              0.8812
 Quadrupole moment (field-independent basis, Debye-Ang):
   XX=             -8.7639   YY=            -14.8391   ZZ=            -24.4193
   XY=             -2.4412   XZ=             -0.1328   YZ=              0.0286

  Exact polarizability:  46.145  -0.705  49.336   0.188   0.144  46.591
 Approx polarizability:  54.016  -1.305  58.828   0.124   0.141  57.526

                      1                      2                      3
                      A                      A                      A
 Frequencies --     15.9370                43.7445                48.1947
 Red. masses --      4.2829                 4.6514                 4.7043
 Frc consts  --      0.0006                 0.0052                 0.0064
 IR Inten    --      0.1691                 1.1639                 1.2979

                      4                      5                      6
                      A                      A                      A
 Frequencies --     71.2472                85.6715                98.6539
 Red. masses --      4.3153                 4.3410                 4.0988
 Frc consts  --      0.0129                 0.0188                 0.0235
 IR Inten    --      1.9675                 7.1454                 7.1123

                      7                      8                      9
                      A                      A                      A
 Frequencies --    100.1354               116.3655               153.5707
 Red. masses --      3.8170                 1.0899                 4.8299
 Frc consts  --      0.0226                 0.0087                 0.0671
 IR Inten    --     13.6965                 0.4121                 2.9304

                     10                     11                     12
                      A                      A                      A
 Frequencies --    181.8225               190.4125               203.3392
 Red. masses --      5.5264                 5.7259                 5.2491
 Frc consts  --      0.1076                 0.1223                 0.1279
 IR Inten    --      0.0421                 2.3012                 0.4026

                     13                     14                     15
                      A                      A                      A
 Frequencies --    253.1056               257.9312               269.2984
 Red. masses --      1.1446                 1.1720                 1.1826
 Frc consts  --      0.0432                 0.0459                 0.0505
 IR Inten    --     43.4988                46.5181                94.6609

                     16                     17                     18
                      A                      A                      A
 Frequencies --    276.2570               303.3538               320.1398
 Red. masses --      5.7194                 1.0919                 1.1875
 Frc consts  --      0.2572                 0.0592                 0.0717
 IR Inten    --      9.7612                14.4560                50.4761

                     19                     20                     21
                      A                      A                      A
 Frequencies --    344.0978               355.6690               356.5104
 Red. masses --      1.1590                 1.1250                 1.0933
 Frc consts  --      0.0809                 0.0838                 0.0819
 IR Inten    --    431.8211                32.5097                25.0167

                     22                     23                     24
                      A                      A                      A
 Frequencies --    372.9049               383.8368               385.6547
 Red. masses --      1.1476                 1.2992                 1.1128
 Frc consts  --      0.0940                 0.1128                 0.0975
 IR Inten    --    118.4089                21.8353               132.3393

                     25                     26                     27
                      A                      A                      A
 Frequencies --    418.0090               433.0306               548.5461
 Red. masses --      1.1430                 1.1206                 1.0463
 Frc consts  --      0.1177                 0.1238                 0.1855
 IR Inten    --    288.8898               207.3152               154.2405

                     28                     29                     30
                      A                      A                      A
 Frequencies --   1604.6612              1615.0771              1616.9170
 Red. masses --      1.0844                 1.0817                 1.0816
 Frc consts  --      1.6451                 1.6625                 1.6660
 IR Inten    --    115.0698               113.5618               108.3597

                     31                     32                     33
                      A                      A                      A
 Frequencies --   1617.9050              1638.9962              3754.0145
 Red. masses --      1.0843                 1.0819                 1.0481
 Frc consts  --      1.6723                 1.7123                 8.7023
 IR Inten    --    108.6620                86.3620                47.8246

                     34                     35                     36
                      A                      A                      A
 Frequencies --   3764.1721              3768.0328              3781.6657
 Red. masses --      1.0470                 1.0465                 1.0459
 Frc consts  --      8.7403                 8.7541                 8.8129
 IR Inten    --     40.0941                33.1881                40.7097

                     37                     38                     39
                      A                      A                      A
 Frequencies --   3789.3263              3873.8553              3875.4856
 Red. masses --      1.0457                 1.0817                 1.0803
 Frc consts  --      8.8467                 9.5637                 9.5595
 IR Inten    --     24.1457                74.4753               172.2357

                     40                     41                     42
                      A                      A                      A
 Frequencies --   3876.3533              3876.5756              3891.7981
 Red. masses --      1.0813                 1.0809                 1.0823
 Frc consts  --      9.5728                 9.5707                 9.6583
 IR Inten    --    207.0079                50.2258               126.5408

 - Thermochemistry -
 -------------------
 Temperature   298.150 Kelvin.  Pressure   1.00000 Atm.
 Atom     1 has atomic number  8 and mass  15.99491

 Molecular mass:   113.04259 amu.
 Principal axes and moments of inertia in atomic units:
                           1         2         3
     Eigenvalues --   876.959891345.136341628.29686
           X            0.99998  -0.00677   0.00002
           Y            0.00677   0.99998   0.00044
           Z           -0.00002  -0.00044   1.00000
 This molecule is an asymmetric top.
 Rotational symmetry number  1.
 Warning -- assumption of classical behavior for rotation
           may cause significant error
 Rotational temperatures (Kelvin)      0.09877     0.06439     0.05319
 Rotational constants (GHZ):           2.05795     1.34168     1.10836
 Zero-point vibrational energy     316605.3 (Joules/Mol)
                                   75.67049 (Kcal/Mol)
 Warning -- explicit consideration of  27 degrees of freedom as
           vibrations may cause significant error
 Vibrational temperatures:     22.93    62.94    69.34   102.51   123.26
          (Kelvin)            141.94   144.07   167.42   220.95   261.60
                              273.96   292.56   364.16   371.11   387.46
                              397.47   436.46   460.61   495.08   511.73
                              512.94   536.53   552.26   554.87   601.42
                              623.03   789.24  2308.75  2323.74  2326.38
                             2327.80  2358.15  5401.19  5415.80  5421.36
                             5440.97  5452.00  5573.61  5575.96  5577.21
                             5577.53  5599.43

 Zero-point correction=                           0.120589 (Hartree/Particle)
 Thermal correction to Energy=                    0.137622
 Thermal correction to Enthalpy=                  0.138566
 Thermal correction to Gibbs Free Energy=         0.076051
 Sum of electronic and zero-point Energies=           -544.343988
 Sum of electronic and thermal Energies=              -544.326954
 Sum of electronic and thermal Enthalpies=            -544.326010
 Sum of electronic and thermal Free Energies=         -544.388525

                     E (Thermal)             CV                S
                      KCal/Mol        Cal/Mol-Kelvin    Cal/Mol-Kelvin
 Total                   86.359             52.840            131.574
 Electronic               0.000              0.000              0.000
 Translational            0.889              2.981             40.083
 Rotational               0.889              2.981             29.042
 Vibrational             84.582             46.878             62.448
 Vibration     1          0.593              1.986              7.085
 Vibration     2          0.595              1.980              5.082
 Vibration     3          0.595              1.978              4.890
 Vibration     4          0.598              1.968              4.119
 Vibration     5          0.601              1.959              3.757
 Vibration     6          0.604              1.950              3.481
 Vibration     7          0.604              1.949              3.452
 Vibration     8          0.608              1.936              3.160
 Vibration     9          0.619              1.899              2.628
 Vibration    10          0.630              1.864              2.310
 Vibration    11          0.634              1.853              2.224
 Vibration    12          0.639              1.835              2.103
 Vibration    13          0.664              1.758              1.709
 Vibration    14          0.667              1.749              1.676
 Vibration    15          0.674              1.730              1.601
 Vibration    16          0.678              1.717              1.557
 Vibration    17          0.695              1.667              1.398
 Vibration    18          0.706              1.635              1.309
 Vibration    19          0.723              1.587              1.193
 Vibration    20          0.731              1.564              1.141
 Vibration    21          0.732              1.562              1.137
 Vibration    22          0.744              1.528              1.068
 Vibration    23          0.753              1.505              1.024
 Vibration    24          0.754              1.501              1.017
 Vibration    25          0.781              1.431              0.899
 Vibration    26          0.794              1.398              0.849
 Vibration    27          0.904              1.143              0.547

 Optimization completed on the basis of negligible forces.
    -- Stationary point found.
 Normal termination of Gaussian 16 at Mon Jul 18 20:55:27 2022.
