 Gaussian 16, Revision B.01,
 Gaussian 16:  ES64L-G16RevB.01 20-Dec-2017

 ----------------------------------------------------------------------
 # geom=check scrf=(solvent=water,iefpcm,externaliteration,1stvac,read)
  rb3lyp/aug-cc-pvdz empiricaldispersion=gd3 scf=(maxcycle=500) int(Acc
 2E=11,grid=ultrafine)
 ----------------------------------------------------------------------

 -----------------------------------------------------------
 MD frame sim005_type3_coord-5_0-5-0_10C_b1_id81779_step2120
 -----------------------------------------------------------
 Structure from the checkpoint file:  "sim005_type3_coord-5_0-5-0_10C_b1_id81779_step2120_2.chk"
 Charge =  1 Multiplicity = 1

                         Standard orientation:
 ---------------------------------------------------------------------
 Center     Atomic      Atomic             Coordinates (Angstroms)
 Number     Number       Type             X           Y           Z
 ---------------------------------------------------------------------
      1          8           0       -1.414084   -1.172326   -1.218640
      2          8           0       -1.273441   -0.624444    1.627652
      3          8           0        2.186381   -1.347723   -0.049557
      4          1           0       -1.745791   -1.329322    1.161294
      5          1           0       -1.362221   -0.818185    2.569002
      6          1           0        2.544359   -1.818975   -0.813626
      7          1           0        2.478950   -1.862945    0.713956
      8          1           0       -2.035875   -0.466588   -1.450584
      9          1           0       -1.551150   -1.876168   -1.864370
     10          8           0        1.996149    1.588523   -0.017754
     11          8           0       -1.732105    1.503339   -0.296701
     12          1           0        2.847852    1.132781    0.000796
     13          1           0        2.197729    2.531727   -0.000736
     14          1           0       -2.167243    1.359482    0.555886
     15          1           0       -2.001419    2.383101   -0.588668
     16         11           0        0.244692    0.107831   -0.058450
 ---------------------------------------------------------------------

 SCF Done:  E(RB3LYP) =  -544.464576639     A.U. after   10 cycles
 SCF Done:  E(RB3LYP) =  -544.541954422     A.U. after    8 cycles
 SCF Done:  E(RB3LYP) =  -544.542182265     A.U. after    8 cycles
 SCF Done:  E(RB3LYP) =  -544.542194196     A.U. after    5 cycles
 SCF Done:  E(RB3LYP) =  -544.542195812     A.U. after    5 cycles
 SCF Done:  E(RB3LYP) =  -544.542196093     A.U. after    3 cycles

 The electronic state is 1-A.
 Alpha  occ. eigenvalues --  -38.43648 -19.17641 -19.17392 -19.17350 -19.17279
 Alpha  occ. eigenvalues --  -19.17217  -2.17111  -1.10512  -1.10386  -1.10375
 Alpha  occ. eigenvalues --   -1.03965  -1.03754  -1.03365  -1.03281  -1.03144
 Alpha  occ. eigenvalues --   -0.56181  -0.55377  -0.55211  -0.55071  -0.54989
 Alpha  occ. eigenvalues --   -0.43413  -0.42504  -0.41993  -0.41809  -0.41778
 Alpha  occ. eigenvalues --   -0.34482  -0.34278  -0.34146  -0.34063  -0.34054
 Alpha virt. eigenvalues --   -0.03697  -0.01687  -0.00989  -0.00460   0.01254
 Alpha virt. eigenvalues --    0.01835   0.01857   0.01963   0.02077   0.03435
 Alpha virt. eigenvalues --    0.03626   0.03958   0.04109   0.05601   0.05979

 Mulliken charges:
               1
     1  O   -0.409732
     2  O   -0.426650
     3  O   -0.399970
     4  H    0.218142
     5  H    0.213072
     6  H    0.205205
     7  H    0.210491
     8  H    0.204949
     9  H    0.212808
    10  O   -0.358546
    11  O   -0.458791
    12  H    0.174534
    13  H    0.190953
    14  H    0.210943
    15  H    0.228685
    16  Na   0.983907
 Sum of Mulliken charges =   1.00000

 Dipole moment (field-independent basis, Debye):
    X=              0.4926    Y=             -0.7911    Z=              0.1313  Tot=              0.9411
 Quadrupole moment (field-independent basis, Debye-Ang):
   XX=             -9.2907   YY=            -15.1812   ZZ=            -24.6016
   XY=             -2.5873   XZ=             -0.1605   YZ=              0.0268

 Normal termination of Gaussian 16 at Mon Jul 18 21:16:11 2022.
