 Gaussian 16, Revision B.01,
 Gaussian 16:  ES64L-G16RevB.01 20-Dec-2017

 ----------------------------------------------------------------------
 # opt=(calcall,maxcycles=500,maxstep=10,cartesian) freq iop(1/152=500,
 1/8=10) scf=(maxcycle=500) int(Acc2E=11,grid=ultrafine) rb3lyp/aug-cc-
 pvdz empiricaldispersion=gd3
 ----------------------------------------------------------------------

 -----------------------------------------------------------
 MD frame sim004_type3_coord-5_3-2-0_10C_b1_id81790_step1500
 -----------------------------------------------------------
 Symbolic Z-matrix:
 Charge =  1 Multiplicity = 1

 SCF Done:  E(RB3LYP) =  -544.445654555     A.U. after   10 cycles
 SCF Done:  E(RB3LYP) =  -544.446954091     A.U. after    8 cycles
 SCF Done:  E(RB3LYP) =  -544.449136386     A.U. after    9 cycles
 SCF Done:  E(RB3LYP) =  -544.450795302     A.U. after    9 cycles
 SCF Done:  E(RB3LYP) =  -544.451959242     A.U. after    8 cycles
 SCF Done:  E(RB3LYP) =  -544.453766294     A.U. after    9 cycles
 SCF Done:  E(RB3LYP) =  -544.455429291     A.U. after    9 cycles
 SCF Done:  E(RB3LYP) =  -544.457157992     A.U. after    9 cycles
 SCF Done:  E(RB3LYP) =  -544.458917993     A.U. after    9 cycles
 SCF Done:  E(RB3LYP) =  -544.460079739     A.U. after    9 cycles
 SCF Done:  E(RB3LYP) =  -544.464490848     A.U. after    5 cycles
 SCF Done:  E(RB3LYP) =  -544.464517340     A.U. after    9 cycles
 SCF Done:  E(RB3LYP) =  -544.464551441     A.U. after    8 cycles
 SCF Done:  E(RB3LYP) =  -544.464563973     A.U. after    9 cycles
 SCF Done:  E(RB3LYP) =  -544.464575154     A.U. after    8 cycles
 SCF Done:  E(RB3LYP) =  -544.464576327     A.U. after    8 cycles
 SCF Done:  E(RB3LYP) =  -544.464576601     A.U. after    6 cycles
 SCF Done:  E(RB3LYP) =  -544.464576632     A.U. after    7 cycles
 SCF Done:  E(RB3LYP) =  -544.464576651     A.U. after    7 cycles
 Optimization completed on the basis of negligible forces.
    -- Stationary point found.
 Normal termination of Gaussian 16 at Mon Jul 18 20:57:34 2022.

 ----------------------------------------------------------------------
 #N Geom=AllCheck Guess=TCheck SCRF=Check Test GenChk RB3LYP/Aug-CC-pVD
 Z Freq
 ----------------------------------------------------------------------

 Structure from the checkpoint file:  "sim004_type3_coord-5_3-2-0_10C_b1_id81790_step1500.chk"
 -----------------------------------------------------------
 MD frame sim004_type3_coord-5_3-2-0_10C_b1_id81790_step1500
 -----------------------------------------------------------
 Charge =  1 Multiplicity = 1

                         Standard orientation:
 ---------------------------------------------------------------------
 Center     Atomic      Atomic             Coordinates (Angstroms)
 Number     Number       Type             X           Y           Z
 ---------------------------------------------------------------------
      1          8           0        1.413767    1.171876    1.219211
      2          1           0        1.550814    1.875423    1.865263
      3          1           0        2.035367    0.465921    1.451008
      4          8           0        1.274087    0.624996   -1.627304
      5          1           0        1.363159    0.819151   -2.568539
      6          1           0        1.746248    1.329699   -1.160491
      7          8           0       -1.996064   -1.588563    0.017577
      8          1           0       -2.197519   -2.531791    0.000243
      9          1           0       -2.847848   -1.132935    0.000020
     10          8           0       -2.186568    1.347660    0.049472
     11          1           0       -2.543744    1.819765    0.813379
     12          1           0       -2.480035    1.861962   -0.714307
     13          8           0        1.731934   -1.503432    0.296433
     14          1           0        2.001082   -2.383305    0.588217
     15          1           0        2.167383   -1.359331   -0.555952
     16         11           0       -0.244742   -0.107713    0.058004
 ---------------------------------------------------------------------

 SCF Done:  E(RB3LYP) =  -544.464576651     A.U. after    1 cycles

 The electronic state is 1-A.
 Alpha  occ. eigenvalues --  -38.58569 -19.31835 -19.31193 -19.31062 -19.30949
 Alpha  occ. eigenvalues --  -19.30524  -2.32066  -1.25406  -1.25379  -1.25310
 Alpha  occ. eigenvalues --   -1.17995  -1.17670  -1.17072  -1.16881  -1.16679
 Alpha  occ. eigenvalues --   -0.69951  -0.69484  -0.68852  -0.68715  -0.68686
 Alpha  occ. eigenvalues --   -0.57409  -0.56456  -0.55715  -0.55639  -0.55498
 Alpha  occ. eigenvalues --   -0.48517  -0.47982  -0.47893  -0.47801  -0.47199
 Alpha virt. eigenvalues --   -0.16436  -0.14037  -0.12740  -0.12145  -0.10729
 Alpha virt. eigenvalues --   -0.08283  -0.07646  -0.07239  -0.07125  -0.06413
 Alpha virt. eigenvalues --   -0.05792  -0.05332  -0.05173  -0.04915  -0.04866

 Mulliken charges:
               1
     1  O   -0.379419
     2  H    0.204408
     3  H    0.196861
     4  O   -0.402016
     5  H    0.205399
     6  H    0.209497
     7  O   -0.312475
     8  H    0.181563
     9  H    0.162414
    10  O   -0.363349
    11  H    0.194302
    12  H    0.199448
    13  O   -0.428564
    14  H    0.220871
    15  H    0.201019
    16  Na   0.910039
 Sum of Mulliken charges =   1.00000

 Dipole moment (field-independent basis, Debye):
    X=             -0.4598    Y=              0.7405    Z=             -0.1334  Tot=              0.8818
 Quadrupole moment (field-independent basis, Debye-Ang):
   XX=             -8.7636   YY=            -14.8402   ZZ=            -24.4207
   XY=             -2.4407   XZ=             -0.1345   YZ=              0.0294

  Exact polarizability:  46.144  -0.706  49.335   0.184   0.145  46.593
 Approx polarizability:  54.015  -1.306  58.827   0.121   0.144  57.529

                      1                      2                      3
                      A                      A                      A
 Frequencies --     15.9238                43.6789                48.1874
 Red. masses --      4.2784                 4.6433                 4.7057
 Frc consts  --      0.0006                 0.0052                 0.0064
 IR Inten    --      0.1664                 1.1625                 1.2950

                      4                      5                      6
                      A                      A                      A
 Frequencies --     71.2534                85.7029                98.7071
 Red. masses --      4.3146                 4.3331                 4.1023
 Frc consts  --      0.0129                 0.0188                 0.0235
 IR Inten    --      1.9654                 7.1632                 7.1174

                      7                      8                      9
                      A                      A                      A
 Frequencies --    100.1046               115.9654               153.6027
 Red. masses --      3.8058                 1.0917                 4.8281
 Frc consts  --      0.0225                 0.0087                 0.0671
 IR Inten    --     13.6892                 0.4118                 2.9322

                     10                     11                     12
                      A                      A                      A
 Frequencies --    181.7930               190.3802               203.3072
 Red. masses --      5.5334                 5.7200                 5.2488
 Frc consts  --      0.1077                 0.1221                 0.1278
 IR Inten    --      0.0418                 2.3119                 0.4039

                     13                     14                     15
                      A                      A                      A
 Frequencies --    253.1301               257.9108               269.2843
 Red. masses --      1.1447                 1.1718                 1.1831
 Frc consts  --      0.0432                 0.0459                 0.0505
 IR Inten    --     43.5087                46.2917                94.7297

                     16                     17                     18
                      A                      A                      A
 Frequencies --    276.2845               303.2142               320.1159
 Red. masses --      5.7037                 1.0921                 1.1872
 Frc consts  --      0.2565                 0.0592                 0.0717
 IR Inten    --      9.7854                14.6534                51.0019

                     19                     20                     21
                      A                      A                      A
 Frequencies --    344.0616               355.6437               356.4513
 Red. masses --      1.1596                 1.1321                 1.0862
 Frc consts  --      0.0809                 0.0844                 0.0813
 IR Inten    --    432.1624                29.8068                27.0398

                     22                     23                     24
                      A                      A                      A
 Frequencies --    372.9348               383.8788               385.6038
 Red. masses --      1.1477                 1.2992                 1.1130
 Frc consts  --      0.0940                 0.1128                 0.0975
 IR Inten    --    118.5624                21.5166               132.7507

                     25                     26                     27
                      A                      A                      A
 Frequencies --    418.0534               433.1037               548.6789
 Red. masses --      1.1429                 1.1205                 1.0464
 Frc consts  --      0.1177                 0.1238                 0.1856
 IR Inten    --    288.5142               207.1877               154.2775

                     28                     29                     30
                      A                      A                      A
 Frequencies --   1604.6530              1615.0909              1616.9115
 Red. masses --      1.0844                 1.0817                 1.0816
 Frc consts  --      1.6451                 1.6625                 1.6660
 IR Inten    --    115.1055               113.6096               107.8304

                     31                     32                     33
                      A                      A                      A
 Frequencies --   1617.9063              1638.9796              3753.9684
 Red. masses --      1.0843                 1.0819                 1.0481
 Frc consts  --      1.6723                 1.7123                 8.7021
 IR Inten    --    109.0647                86.4118                47.8702

                     34                     35                     36
                      A                      A                      A
 Frequencies --   3764.1551              3768.0299              3781.7765
 Red. masses --      1.0470                 1.0465                 1.0459
 Frc consts  --      8.7402                 8.7542                 8.8134
 IR Inten    --     40.1314                33.2302                40.7747

                     37                     38                     39
                      A                      A                      A
 Frequencies --   3789.3173              3873.9611              3875.4908
 Red. masses --      1.0457                 1.0816                 1.0803
 Frc consts  --      8.8467                 9.5641                 9.5595
 IR Inten    --     24.0891                72.5829               172.8420

                     40                     41                     42
                      A                      A                      A
 Frequencies --   3876.3629              3876.5875              3891.7839
 Red. masses --      1.0813                 1.0809                 1.0823
 Frc consts  --      9.5728                 9.5708                 9.6582
 IR Inten    --    207.1009                51.4525               126.5731

 - Thermochemistry -
 -------------------
 Temperature   298.150 Kelvin.  Pressure   1.00000 Atm.
 Atom     1 has atomic number  8 and mass  15.99491

 Molecular mass:   113.04259 amu.
 Principal axes and moments of inertia in atomic units:
                           1         2         3
     Eigenvalues --   876.919971345.208451628.37306
           X            0.99998  -0.00677   0.00001
           Y            0.00677   0.99998   0.00043
           Z           -0.00002  -0.00043   1.00000
 This molecule is an asymmetric top.
 Rotational symmetry number  1.
 Warning -- assumption of classical behavior for rotation
           may cause significant error
 Rotational temperatures (Kelvin)      0.09877     0.06439     0.05319
 Rotational constants (GHZ):           2.05805     1.34161     1.10831
 Zero-point vibrational energy     316603.3 (Joules/Mol)
                                   75.66999 (Kcal/Mol)
 Warning -- explicit consideration of  27 degrees of freedom as
           vibrations may cause significant error
 Vibrational temperatures:     22.91    62.84    69.33   102.52   123.31
          (Kelvin)            142.02   144.03   166.85   221.00   261.56
                              273.91   292.51   364.20   371.08   387.44
                              397.51   436.26   460.58   495.03   511.69
                              512.85   536.57   552.32   554.80   601.49
                              623.14   789.43  2308.74  2323.76  2326.37
                             2327.81  2358.13  5401.12  5415.78  5421.35
                             5441.13  5451.98  5573.77  5575.97  5577.22
                             5577.54  5599.41

 Zero-point correction=                           0.120588 (Hartree/Particle)
 Thermal correction to Energy=                    0.137623
 Thermal correction to Enthalpy=                  0.138567
 Thermal correction to Gibbs Free Energy=         0.076046
 Sum of electronic and zero-point Energies=           -544.343989
 Sum of electronic and thermal Energies=              -544.326954
 Sum of electronic and thermal Enthalpies=            -544.326010
 Sum of electronic and thermal Free Energies=         -544.388530

                     E (Thermal)             CV                S
                      KCal/Mol        Cal/Mol-Kelvin    Cal/Mol-Kelvin
 Total                   86.359             52.840            131.585
 Electronic               0.000              0.000              0.000
 Translational            0.889              2.981             40.083
 Rotational               0.889              2.981             29.042
 Vibrational             84.582             46.878             62.460
 Vibration     1          0.593              1.986              7.087
 Vibration     2          0.595              1.980              5.085
 Vibration     3          0.595              1.978              4.890
 Vibration     4          0.598              1.968              4.118
 Vibration     5          0.601              1.959              3.756
 Vibration     6          0.604              1.950              3.480
 Vibration     7          0.604              1.949              3.452
 Vibration     8          0.608              1.936              3.167
 Vibration     9          0.619              1.899              2.627
 Vibration    10          0.630              1.865              2.310
 Vibration    11          0.634              1.853              2.224
 Vibration    12          0.639              1.835              2.103
 Vibration    13          0.664              1.758              1.709
 Vibration    14          0.667              1.749              1.676
 Vibration    15          0.674              1.730              1.601
 Vibration    16          0.678              1.717              1.557
 Vibration    17          0.695              1.668              1.399
 Vibration    18          0.706              1.635              1.310
 Vibration    19          0.723              1.587              1.193
 Vibration    20          0.731              1.564              1.141
 Vibration    21          0.732              1.562              1.138
 Vibration    22          0.744              1.528              1.068
 Vibration    23          0.753              1.505              1.024
 Vibration    24          0.754              1.501              1.017
 Vibration    25          0.781              1.431              0.899
 Vibration    26          0.794              1.398              0.849
 Vibration    27          0.904              1.143              0.547

 Optimization completed on the basis of negligible forces.
    -- Stationary point found.
 Normal termination of Gaussian 16 at Mon Jul 18 20:59:08 2022.
