 Gaussian 16, Revision B.01,
 Gaussian 16:  ES64L-G16RevB.01 20-Dec-2017

 ----------------------------------------------------------------------
 # geom=check scrf=(solvent=water,iefpcm,externaliteration,1stvac,read)
  rb3lyp/aug-cc-pvdz empiricaldispersion=gd3 scf=(maxcycle=500) int(Acc
 2E=11,grid=ultrafine)
 ----------------------------------------------------------------------

 -----------------------------------------------------------
 MD frame sim009_type3_coord-5_4-1-0_10C_b1_id81769_step4300
 -----------------------------------------------------------
 Structure from the checkpoint file:  "sim009_type3_coord-5_4-1-0_10C_b1_id81769_step4300_2.chk"
 Charge =  1 Multiplicity = 1

                         Standard orientation:
 ---------------------------------------------------------------------
 Center     Atomic      Atomic             Coordinates (Angstroms)
 Number     Number       Type             X           Y           Z
 ---------------------------------------------------------------------
      1          8           0       -1.414764   -1.176632   -1.214314
      2          1           0       -1.552101   -1.882855   -1.857382
      3          1           0       -2.036626   -0.471743   -1.448620
      4          8           0        1.995827    1.588461   -0.018274
      5          1           0       -2.166825    1.361763    0.551367
      6          8           0       -1.731935    1.502394   -0.301883
      7          1           0       -2.001143    2.381145   -0.596979
      8          1           0        2.847633    1.132918    0.000435
      9          1           0        2.197183    2.531714   -0.001219
     10          8           0        2.186589   -1.347773   -0.049869
     11          1           0        2.479249   -1.862722    0.713792
     12          1           0        2.544711   -1.819144   -0.813799
     13          1           0       -1.361000   -0.809076    2.572081
     14          8           0       -1.272762   -0.618785    1.629976
     15          1           0       -1.745651   -1.325186    1.166482
     16         11           0        0.244630    0.107443   -0.059203
 ---------------------------------------------------------------------

 SCF Done:  E(RB3LYP) =  -544.464576597     A.U. after   10 cycles
 SCF Done:  E(RB3LYP) =  -544.541958189     A.U. after    8 cycles
 SCF Done:  E(RB3LYP) =  -544.542186244     A.U. after    8 cycles
 SCF Done:  E(RB3LYP) =  -544.542198200     A.U. after    5 cycles
 SCF Done:  E(RB3LYP) =  -544.542199821     A.U. after    5 cycles
 SCF Done:  E(RB3LYP) =  -544.542200103     A.U. after    3 cycles

 The electronic state is 1-A.
 Alpha  occ. eigenvalues --  -38.43645 -19.17641 -19.17392 -19.17349 -19.17279
 Alpha  occ. eigenvalues --  -19.17216  -2.17108  -1.10509  -1.10383  -1.10372
 Alpha  occ. eigenvalues --   -1.03965  -1.03754  -1.03365  -1.03280  -1.03143
 Alpha  occ. eigenvalues --   -0.56180  -0.55377  -0.55211  -0.55071  -0.54988
 Alpha  occ. eigenvalues --   -0.43413  -0.42503  -0.41992  -0.41809  -0.41776
 Alpha  occ. eigenvalues --   -0.34481  -0.34278  -0.34145  -0.34062  -0.34053
 Alpha virt. eigenvalues --   -0.03697  -0.01686  -0.00988  -0.00460   0.01254
 Alpha virt. eigenvalues --    0.01835   0.01856   0.01963   0.02077   0.03434
 Alpha virt. eigenvalues --    0.03625   0.03958   0.04112   0.05601   0.05979

 Mulliken charges:
               1
     1  O   -0.409858
     2  H    0.212856
     3  H    0.204950
     4  O   -0.358565
     5  H    0.210898
     6  O   -0.458659
     7  H    0.228636
     8  H    0.174514
     9  H    0.190948
    10  O   -0.399987
    11  H    0.210471
    12  H    0.205145
    13  H    0.213050
    14  O   -0.426725
    15  H    0.218061
    16  Na   0.984266
 Sum of Mulliken charges =   1.00000

 Dipole moment (field-independent basis, Debye):
    X=              0.4926    Y=             -0.7901    Z=              0.1316  Tot=              0.9404
 Quadrupole moment (field-independent basis, Debye-Ang):
   XX=             -9.2906   YY=            -15.1807   ZZ=            -24.6010
   XY=             -2.5880   XZ=             -0.1571   YZ=              0.0275

 Normal termination of Gaussian 16 at Mon Jul 18 20:56:42 2022.
