 Gaussian 16, Revision B.01,
 Gaussian 16:  ES64L-G16RevB.01 20-Dec-2017

 ----------------------------------------------------------------------
 # geom=check scrf=(solvent=water,iefpcm,externaliteration,1stvac,read)
  rb3lyp/aug-cc-pvdz empiricaldispersion=gd3 scf=(maxcycle=500) int(Acc
 2E=11,grid=ultrafine)
 ----------------------------------------------------------------------

 -----------------------------------------------------------
 MD frame sim003_type3_coord-5_2-3-0_10C_b1_id81786_step1560
 -----------------------------------------------------------
 Structure from the checkpoint file:  "sim003_type3_coord-5_2-3-0_10C_b1_id81786_step1560_2.chk"
 Charge =  1 Multiplicity = 1

                         Standard orientation:
 ---------------------------------------------------------------------
 Center     Atomic      Atomic             Coordinates (Angstroms)
 Number     Number       Type             X           Y           Z
 ---------------------------------------------------------------------
      1          8           0       -1.420422   -1.701403   -0.714888
      2          1           0       -1.501745   -2.635267   -0.941280
      3          1           0       -2.291144   -1.309590   -0.866301
      4          8           0       -0.007588   -0.005959    2.266717
      5          1           0       -0.399138   -0.668815    2.849716
      6          1           0        0.380516    0.651709    2.857831
      7          8           0       -2.178754    1.080357   -0.411468
      8          8           0        1.424324    1.704890   -0.703378
      9          1           0        2.295749    1.314093   -0.853339
     10          1           0        1.506270    2.639912   -0.924709
     11          1           0       -2.438326    1.650877   -1.146887
     12          1           0       -2.698185    1.395130    0.340142
     13          8           0        2.181674   -1.078158   -0.409098
     14          1           0        2.699601   -1.396503    0.342045
     15          1           0        2.442702   -1.645247   -1.146656
     16         11           0        0.000894    0.000536   -0.066695
 ---------------------------------------------------------------------

 SCF Done:  E(RB3LYP) =  -544.463880555     A.U. after   10 cycles
 SCF Done:  E(RB3LYP) =  -544.540026732     A.U. after    9 cycles
 SCF Done:  E(RB3LYP) =  -544.540209722     A.U. after    8 cycles
 SCF Done:  E(RB3LYP) =  -544.540214088     A.U. after    6 cycles
 SCF Done:  E(RB3LYP) =  -544.540214344     A.U. after    3 cycles

 The electronic state is 1-A.
 Alpha  occ. eigenvalues --  -38.43397 -19.17682 -19.17681 -19.17660 -19.17139
 Alpha  occ. eigenvalues --  -19.17138  -2.16936  -1.10317  -1.10253  -1.10207
 Alpha  occ. eigenvalues --   -1.03941  -1.03787  -1.03756  -1.03277  -1.03171
 Alpha  occ. eigenvalues --   -0.55417  -0.55364  -0.55330  -0.55269  -0.55268
 Alpha  occ. eigenvalues --   -0.43699  -0.42585  -0.42531  -0.41972  -0.41778
 Alpha  occ. eigenvalues --   -0.34596  -0.34380  -0.34148  -0.33968  -0.33925
 Alpha virt. eigenvalues --   -0.03785  -0.01630  -0.01004  -0.00980   0.01212
 Alpha virt. eigenvalues --    0.01770   0.01878   0.01894   0.02065   0.03396
 Alpha virt. eigenvalues --    0.03448   0.03648   0.03839   0.05650   0.05851

 Mulliken charges:
               1
     1  O   -0.349109
     2  H    0.193166
     3  H    0.176831
     4  O   -0.443612
     5  H    0.210064
     6  H    0.210125
     7  O   -0.441395
     8  O   -0.349153
     9  H    0.176836
    10  H    0.193128
    11  H    0.217653
    12  H    0.213859
    13  O   -0.441015
    14  H    0.213997
    15  H    0.217481
    16  Na   1.001146
 Sum of Mulliken charges =   1.00000

 Dipole moment (field-independent basis, Debye):
    X=             -0.0004    Y=             -0.0035    Z=              0.6211  Tot=              0.6211
 Quadrupole moment (field-independent basis, Debye-Ang):
   XX=             -9.5397   YY=            -15.6553   ZZ=            -19.8386
   XY=             -3.3810   XZ=             -0.0073   YZ=             -0.0008

 Normal termination of Gaussian 16 at Mon Jul 18 21:34:45 2022.
