 Gaussian 16, Revision B.01,
 Gaussian 16:  ES64L-G16RevB.01 20-Dec-2017

 ----------------------------------------------------------------------
 # opt=(calcall,maxcycles=500,maxstep=10,cartesian) freq iop(1/152=500,
 1/8=10) scf=(maxcycle=500) int(Acc2E=11,grid=ultrafine) rb3lyp/aug-cc-
 pvdz empiricaldispersion=gd3
 ----------------------------------------------------------------------

 -----------------------------------------------------------
 MD frame sim002_type3_coord-5_3-1-1_10C_b1_id81771_step1460
 -----------------------------------------------------------
 Symbolic Z-matrix:
 Charge =  1 Multiplicity = 1

 SCF Done:  E(RB3LYP) =  -544.441323747     A.U. after   10 cycles
 SCF Done:  E(RB3LYP) =  -544.442897013     A.U. after    8 cycles
 SCF Done:  E(RB3LYP) =  -544.445697611     A.U. after    9 cycles
 SCF Done:  E(RB3LYP) =  -544.448168528     A.U. after    9 cycles
 SCF Done:  E(RB3LYP) =  -544.449844621     A.U. after    9 cycles
 SCF Done:  E(RB3LYP) =  -544.451176290     A.U. after    9 cycles
 SCF Done:  E(RB3LYP) =  -544.453340772     A.U. after    8 cycles
 SCF Done:  E(RB3LYP) =  -544.455905943     A.U. after    9 cycles
 SCF Done:  E(RB3LYP) =  -544.456451696     A.U. after    9 cycles
 SCF Done:  E(RB3LYP) =  -544.456656793     A.U. after    9 cycles
 SCF Done:  E(RB3LYP) =  -544.464522412     A.U. after    8 cycles
 SCF Done:  E(RB3LYP) =  -544.464547518     A.U. after    9 cycles
 SCF Done:  E(RB3LYP) =  -544.464561646     A.U. after    8 cycles
 SCF Done:  E(RB3LYP) =  -544.464569302     A.U. after    8 cycles
 SCF Done:  E(RB3LYP) =  -544.464572635     A.U. after    7 cycles
 SCF Done:  E(RB3LYP) =  -544.464573485     A.U. after    7 cycles
 SCF Done:  E(RB3LYP) =  -544.464573905     A.U. after    6 cycles
 SCF Done:  E(RB3LYP) =  -544.464574083     A.U. after    6 cycles
 SCF Done:  E(RB3LYP) =  -544.464574225     A.U. after    6 cycles
 Optimization completed on the basis of negligible forces.
    -- Stationary point found.
 Normal termination of Gaussian 16 at Mon Jul 18 21:10:26 2022.

 ----------------------------------------------------------------------
 #N Geom=AllCheck Guess=TCheck SCRF=Check Test GenChk RB3LYP/Aug-CC-pVD
 Z Freq
 ----------------------------------------------------------------------

 Structure from the checkpoint file:  "sim002_type3_coord-5_3-1-1_10C_b1_id81771_step1460.chk"
 -----------------------------------------------------------
 MD frame sim002_type3_coord-5_3-1-1_10C_b1_id81771_step1460
 -----------------------------------------------------------
 Charge =  1 Multiplicity = 1

                         Standard orientation:
 ---------------------------------------------------------------------
 Center     Atomic      Atomic             Coordinates (Angstroms)
 Number     Number       Type             X           Y           Z
 ---------------------------------------------------------------------
      1          8           0        2.000499   -1.589011    0.010050
      2          8           0       -1.284657    0.705263   -1.591453
      3          1           0        2.204937   -2.531592   -0.007497
      4          8           0       -1.404481    1.107841    1.280043
      5          1           0       -2.024606    0.390124    1.477305
      6          1           0       -1.538129    1.775788    1.963522
      7          1           0        2.850987   -1.130763   -0.001513
      8          1           0       -1.381105    0.949022   -2.520338
      9          1           0       -1.749117    1.386716   -1.084073
     10          8           0        2.183868    1.347464    0.044714
     11          1           0        2.479012    1.861137   -0.718853
     12          1           0        2.536122    1.822342    0.809186
     13          8           0       -1.733268   -1.515383    0.221312
     14          1           0       -2.172280   -1.324887   -0.620100
     15          1           0       -2.003595   -2.408795    0.467225
     16         11           0        0.245644   -0.112589    0.047073
 ---------------------------------------------------------------------

 SCF Done:  E(RB3LYP) =  -544.464574225     A.U. after    1 cycles

 The electronic state is 1-A.
 Alpha  occ. eigenvalues --  -38.58589 -19.31838 -19.31201 -19.31060 -19.30962
 Alpha  occ. eigenvalues --  -19.30530  -2.32084  -1.25423  -1.25397  -1.25327
 Alpha  occ. eigenvalues --   -1.17999  -1.17679  -1.17075  -1.16888  -1.16685
 Alpha  occ. eigenvalues --   -0.69965  -0.69487  -0.68856  -0.68722  -0.68691
 Alpha  occ. eigenvalues --   -0.57411  -0.56453  -0.55726  -0.55655  -0.55501
 Alpha  occ. eigenvalues --   -0.48530  -0.47976  -0.47897  -0.47816  -0.47205
 Alpha virt. eigenvalues --   -0.16440  -0.14036  -0.12745  -0.12148  -0.10728
 Alpha virt. eigenvalues --   -0.08267  -0.07645  -0.07243  -0.07137  -0.06415
 Alpha virt. eigenvalues --   -0.05783  -0.05326  -0.05173  -0.04917  -0.04879

 Mulliken charges:
               1
     1  O   -0.312502
     2  O   -0.400647
     3  H    0.181793
     4  O   -0.378137
     5  H    0.196766
     6  H    0.203649
     7  H    0.162801
     8  H    0.205575
     9  H    0.210618
    10  O   -0.363166
    11  H    0.199569
    12  H    0.195245
    13  O   -0.430406
    14  H    0.201654
    15  H    0.221547
    16  Na   0.905641
 Sum of Mulliken charges =   1.00000

 Dipole moment (field-independent basis, Debye):
    X=              0.4610    Y=              0.7537    Z=             -0.1279  Tot=              0.8927
 Quadrupole moment (field-independent basis, Debye-Ang):
   XX=             -8.7763   YY=            -14.8480   ZZ=            -24.4370
   XY=              2.4287   XZ=              0.1682   YZ=              0.0236

  Exact polarizability:  46.132   0.723  49.325  -0.139   0.138  46.612
 Approx polarizability:  53.996   1.319  58.821  -0.078   0.146  57.555

                      1                      2                      3
                      A                      A                      A
 Frequencies --     16.4833                43.8981                48.1113
 Red. masses --      4.2773                 4.6220                 4.7237
 Frc consts  --      0.0007                 0.0052                 0.0064
 IR Inten    --      0.1433                 1.1253                 1.2500

                      4                      5                      6
                      A                      A                      A
 Frequencies --     71.3218                86.3180                99.5510
 Red. masses --      4.2978                 4.3125                 4.1938
 Frc consts  --      0.0129                 0.0189                 0.0245
 IR Inten    --      1.9661                 7.3213                 7.3233

                      7                      8                      9
                      A                      A                      A
 Frequencies --    100.3377               116.1579               153.9441
 Red. masses --      3.8340                 1.0898                 4.8163
 Frc consts  --      0.0227                 0.0087                 0.0673
 IR Inten    --     13.4657                 0.2545                 2.9301

                     10                     11                     12
                      A                      A                      A
 Frequencies --    181.5661               190.0009               202.9524
 Red. masses --      5.6229                 5.7030                 5.2200
 Frc consts  --      0.1092                 0.1213                 0.1267
 IR Inten    --      0.0548                 2.4377                 0.3920

                     13                     14                     15
                      A                      A                      A
 Frequencies --    253.3167               258.5196               269.1979
 Red. masses --      1.1444                 1.1718                 1.1914
 Frc consts  --      0.0433                 0.0461                 0.0509
 IR Inten    --     46.8883                43.9850                91.4377

                     16                     17                     18
                      A                      A                      A
 Frequencies --    276.6256               303.2393               320.5740
 Red. masses --      5.4667                 1.0931                 1.1846
 Frc consts  --      0.2465                 0.0592                 0.0717
 IR Inten    --     11.0412                16.8563                54.4882

                     19                     20                     21
                      A                      A                      A
 Frequencies --    344.3965               355.2885               357.4935
 Red. masses --      1.1623                 1.1309                 1.0838
 Frc consts  --      0.0812                 0.0841                 0.0816
 IR Inten    --    434.5856                15.0701                37.4076

                     22                     23                     24
                      A                      A                      A
 Frequencies --    373.5045               384.6547               385.8540
 Red. masses --      1.1475                 1.2842                 1.1259
 Frc consts  --      0.0943                 0.1119                 0.0988
 IR Inten    --    122.0384                16.9985               135.1930

                     25                     26                     27
                      A                      A                      A
 Frequencies --    418.9978               434.1230               550.0768
 Red. masses --      1.1413                 1.1201                 1.0465
 Frc consts  --      0.1181                 0.1244                 0.1866
 IR Inten    --    285.4923               206.3361               154.7079

                     28                     29                     30
                      A                      A                      A
 Frequencies --   1604.6913              1615.3511              1616.9003
 Red. masses --      1.0844                 1.0816                 1.0817
 Frc consts  --      1.6452                 1.6629                 1.6662
 IR Inten    --    115.6209               114.4739                99.8904

                     31                     32                     33
                      A                      A                      A
 Frequencies --   1617.9529              1638.9675              3753.4299
 Red. masses --      1.0842                 1.0819                 1.0481
 Frc consts  --      1.6723                 1.7123                 8.7001
 IR Inten    --    115.1028                86.9885                48.1129

                     34                     35                     36
                      A                      A                      A
 Frequencies --   3763.8199              3767.7751              3781.7335
 Red. masses --      1.0470                 1.0465                 1.0459
 Frc consts  --      8.7391                 8.7533                 8.8132
 IR Inten    --     40.4950                33.7966                40.8390

                     37                     38                     39
                      A                      A                      A
 Frequencies --   3789.2775              3873.9025              3875.2655
 Red. masses --      1.0457                 1.0816                 1.0802
 Frc consts  --      8.8465                 9.5637                 9.5578
 IR Inten    --     24.1004                67.6527               172.9667

                     40                     41                     42
                      A                      A                      A
 Frequencies --   3876.3200              3876.5521              3891.7460
 Red. masses --      1.0812                 1.0809                 1.0823
 Frc consts  --      9.5722                 9.5704                 9.6580
 IR Inten    --    209.2541                54.6311               126.9255

 - Thermochemistry -
 -------------------
 Temperature   298.150 Kelvin.  Pressure   1.00000 Atm.
 Atom     1 has atomic number  8 and mass  15.99491

 Molecular mass:   113.04259 amu.
 Principal axes and moments of inertia in atomic units:
                           1         2         3
     Eigenvalues --   876.510881345.631911629.02218
           X            0.99998   0.00676   0.00008
           Y           -0.00676   0.99998   0.00031
           Z           -0.00008  -0.00031   1.00000
 This molecule is an asymmetric top.
 Rotational symmetry number  1.
 Warning -- assumption of classical behavior for rotation
           may cause significant error
 Rotational temperatures (Kelvin)      0.09882     0.06437     0.05317
 Rotational constants (GHZ):           2.05901     1.34118     1.10787
 Zero-point vibrational energy     316652.7 (Joules/Mol)
                                   75.68180 (Kcal/Mol)
 Warning -- explicit consideration of  27 degrees of freedom as
           vibrations may cause significant error
 Vibrational temperatures:     23.72    63.16    69.22   102.62   124.19
          (Kelvin)            143.23   144.36   167.13   221.49   261.23
                              273.37   292.00   364.47   371.95   387.32
                              398.00   436.29   461.23   495.51   511.18
                              514.35   537.39   553.43   555.16   602.84
                              624.61   791.44  2308.79  2324.13  2326.36
                             2327.87  2358.11  5400.35  5415.30  5420.99
                             5441.07  5451.93  5573.68  5575.64  5577.16
                             5577.49  5599.35

 Zero-point correction=                           0.120607 (Hartree/Particle)
 Thermal correction to Energy=                    0.137630
 Thermal correction to Enthalpy=                  0.138574
 Thermal correction to Gibbs Free Energy=         0.076120
 Sum of electronic and zero-point Energies=           -544.343968
 Sum of electronic and thermal Energies=              -544.326945
 Sum of electronic and thermal Enthalpies=            -544.326001
 Sum of electronic and thermal Free Energies=         -544.388454

                     E (Thermal)             CV                S
                      KCal/Mol        Cal/Mol-Kelvin    Cal/Mol-Kelvin
 Total                   86.364             52.824            131.445
 Electronic               0.000              0.000              0.000
 Translational            0.889              2.981             40.083
 Rotational               0.889              2.981             29.042
 Vibrational             84.586             46.862             62.319
 Vibration     1          0.593              1.986              7.018
 Vibration     2          0.595              1.980              5.075
 Vibration     3          0.595              1.978              4.894
 Vibration     4          0.598              1.968              4.117
 Vibration     5          0.601              1.959              3.742
 Vibration     6          0.604              1.949              3.463
 Vibration     7          0.604              1.949              3.448
 Vibration     8          0.608              1.936              3.163
 Vibration     9          0.619              1.898              2.623
 Vibration    10          0.630              1.865              2.312
 Vibration    11          0.633              1.854              2.228
 Vibration    12          0.639              1.836              2.106
 Vibration    13          0.664              1.757              1.707
 Vibration    14          0.667              1.748              1.672
 Vibration    15          0.674              1.730              1.601
 Vibration    16          0.678              1.717              1.554
 Vibration    17          0.695              1.668              1.399
 Vibration    18          0.706              1.634              1.307
 Vibration    19          0.723              1.587              1.192
 Vibration    20          0.731              1.564              1.143
 Vibration    21          0.733              1.560              1.133
 Vibration    22          0.745              1.526              1.065
 Vibration    23          0.754              1.503              1.021
 Vibration    24          0.755              1.500              1.016
 Vibration    25          0.782              1.429              0.895
 Vibration    26          0.795              1.396              0.845
 Vibration    27          0.905              1.140              0.544

 Optimization completed on the basis of negligible forces.
    -- Stationary point found.
 Normal termination of Gaussian 16 at Mon Jul 18 21:12:02 2022.
