 Gaussian 16, Revision B.01,
 Gaussian 16:  ES64L-G16RevB.01 20-Dec-2017

 ----------------------------------------------------------------------
 # opt=(calcall,maxcycles=500,maxstep=10,cartesian) freq iop(1/152=500,
 1/8=10) scf=(maxcycle=500) int(Acc2E=11,grid=ultrafine) rb3lyp/aug-cc-
 pvdz empiricaldispersion=gd3
 ----------------------------------------------------------------------

 -----------------------------------------------------------
 MD frame sim006_type3_coord-5_3-2-0_10C_b1_id81756_step1780
 -----------------------------------------------------------
 Symbolic Z-matrix:
 Charge =  1 Multiplicity = 1

 SCF Done:  E(RB3LYP) =  -544.439753587     A.U. after   10 cycles
 SCF Done:  E(RB3LYP) =  -544.441233718     A.U. after    8 cycles
 SCF Done:  E(RB3LYP) =  -544.443914380     A.U. after    9 cycles
 SCF Done:  E(RB3LYP) =  -544.446881332     A.U. after    9 cycles
 SCF Done:  E(RB3LYP) =  -544.448331939     A.U. after    9 cycles
 SCF Done:  E(RB3LYP) =  -544.450323069     A.U. after    9 cycles
 SCF Done:  E(RB3LYP) =  -544.452756553     A.U. after    9 cycles
 SCF Done:  E(RB3LYP) =  -544.455937712     A.U. after    9 cycles
 SCF Done:  E(RB3LYP) =  -544.458139840     A.U. after    9 cycles
 SCF Done:  E(RB3LYP) =  -544.457401759     A.U. after    9 cycles
 SCF Done:  E(RB3LYP) =  -544.464561300     A.U. after    7 cycles
 SCF Done:  E(RB3LYP) =  -544.464560550     A.U. after    8 cycles
 SCF Done:  E(RB3LYP) =  -544.464566888     A.U. after    7 cycles
 SCF Done:  E(RB3LYP) =  -544.464570819     A.U. after    7 cycles
 SCF Done:  E(RB3LYP) =  -544.464575142     A.U. after    8 cycles
 SCF Done:  E(RB3LYP) =  -544.464576468     A.U. after    7 cycles
 SCF Done:  E(RB3LYP) =  -544.464575762     A.U. after    8 cycles
 SCF Done:  E(RB3LYP) =  -544.464576635     A.U. after    6 cycles
 SCF Done:  E(RB3LYP) =  -544.464576664     A.U. after    6 cycles
 Optimization completed on the basis of negligible forces.
    -- Stationary point found.
 Normal termination of Gaussian 16 at Mon Jul 18 21:35:13 2022.

 ----------------------------------------------------------------------
 #N Geom=AllCheck Guess=TCheck SCRF=Check Test GenChk RB3LYP/Aug-CC-pVD
 Z Freq
 ----------------------------------------------------------------------

 Structure from the checkpoint file:  "sim006_type3_coord-5_3-2-0_10C_b1_id81756_step1780.chk"
 -----------------------------------------------------------
 MD frame sim006_type3_coord-5_3-2-0_10C_b1_id81756_step1780
 -----------------------------------------------------------
 Charge =  1 Multiplicity = 1

                         Standard orientation:
 ---------------------------------------------------------------------
 Center     Atomic      Atomic             Coordinates (Angstroms)
 Number     Number       Type             X           Y           Z
 ---------------------------------------------------------------------
      1          8           0        2.186381   -1.347633   -0.049278
      2          1           0        2.479829   -1.861956    0.714497
      3          1           0        2.543372   -1.819855   -0.813203
      4          8           0       -1.274417   -0.629330    1.625554
      5          1           0       -1.363788   -0.826123    2.566213
      6          1           0       -1.746194   -1.332878    1.156612
      7          8           0        1.996302    1.588631   -0.017209
      8          1           0        2.197926    2.531820   -0.000000
      9          1           0        2.848013    1.132858    0.000121
     10          8           0       -1.413344   -1.168567   -1.222470
     11          1           0       -2.034923   -0.461969   -1.452367
     12          1           0       -1.550251   -1.870271   -1.870555
     13          8           0       -1.732121    1.504128   -0.292377
     14          1           0       -2.167659    1.357538    0.559540
     15          1           0       -2.001407    2.384762   -0.581724
     16         11           0        0.244788    0.108022   -0.057536
 ---------------------------------------------------------------------

 SCF Done:  E(RB3LYP) =  -544.464576664     A.U. after    1 cycles

 The electronic state is 1-A.
 Alpha  occ. eigenvalues --  -38.58570 -19.31835 -19.31193 -19.31062 -19.30950
 Alpha  occ. eigenvalues --  -19.30524  -2.32067  -1.25407  -1.25380  -1.25311
 Alpha  occ. eigenvalues --   -1.17996  -1.17670  -1.17072  -1.16881  -1.16679
 Alpha  occ. eigenvalues --   -0.69951  -0.69484  -0.68853  -0.68716  -0.68687
 Alpha  occ. eigenvalues --   -0.57409  -0.56456  -0.55716  -0.55640  -0.55498
 Alpha  occ. eigenvalues --   -0.48517  -0.47981  -0.47893  -0.47801  -0.47200
 Alpha virt. eigenvalues --   -0.16437  -0.14037  -0.12740  -0.12145  -0.10729
 Alpha virt. eigenvalues --   -0.08282  -0.07646  -0.07239  -0.07126  -0.06413
 Alpha virt. eigenvalues --   -0.05792  -0.05332  -0.05173  -0.04915  -0.04867

 Mulliken charges:
               1
     1  O   -0.363332
     2  H    0.199461
     3  H    0.194351
     4  O   -0.401946
     5  H    0.205407
     6  H    0.209562
     7  O   -0.312469
     8  H    0.181571
     9  H    0.162431
    10  O   -0.379350
    11  H    0.196860
    12  H    0.204368
    13  O   -0.428663
    14  H    0.201053
    15  H    0.220908
    16  Na   0.909789
 Sum of Mulliken charges =   1.00000

 Dipole moment (field-independent basis, Debye):
    X=              0.4598    Y=             -0.7412    Z=              0.1331  Tot=              0.8824
 Quadrupole moment (field-independent basis, Debye-Ang):
   XX=             -8.7645   YY=            -14.8406   ZZ=            -24.4215
   XY=             -2.4401   XZ=             -0.1366   YZ=              0.0284

  Exact polarizability:  46.143  -0.708  49.334   0.182   0.145  46.594
 Approx polarizability:  54.014  -1.307  58.826   0.119   0.144  57.530

                      1                      2                      3
                      A                      A                      A
 Frequencies --     15.9666                43.7008                48.1785
 Red. masses --      4.2794                 4.6441                 4.7059
 Frc consts  --      0.0006                 0.0052                 0.0064
 IR Inten    --      0.1634                 1.1618                 1.2942

                      4                      5                      6
                      A                      A                      A
 Frequencies --     71.2393                85.7317                98.7463
 Red. masses --      4.3128                 4.3338                 4.1036
 Frc consts  --      0.0129                 0.0188                 0.0236
 IR Inten    --      1.9664                 7.1678                 7.1181

                      7                      8                      9
                      A                      A                      A
 Frequencies --    100.1057               116.0959               153.6233
 Red. masses --      3.8136                 1.0910                 4.8275
 Frc consts  --      0.0225                 0.0087                 0.0671
 IR Inten    --     13.6997                 0.3976                 2.9317

                     10                     11                     12
                      A                      A                      A
 Frequencies --    181.7746               190.3655               203.2809
 Red. masses --      5.5376                 5.7184                 5.2478
 Frc consts  --      0.1078                 0.1221                 0.1278
 IR Inten    --      0.0415                 2.3174                 0.4029

                     13                     14                     15
                      A                      A                      A
 Frequencies --    253.0376               257.9330               269.2648
 Red. masses --      1.1445                 1.1721                 1.1836
 Frc consts  --      0.0432                 0.0459                 0.0506
 IR Inten    --     44.1573                46.1812                94.0879

                     16                     17                     18
                      A                      A                      A
 Frequencies --    276.3065               303.2480               320.1293
 Red. masses --      5.6904                 1.0921                 1.1873
 Frc consts  --      0.2560                 0.0592                 0.0717
 IR Inten    --      9.8574                14.7578                51.0498

                     19                     20                     21
                      A                      A                      A
 Frequencies --    344.0850               355.6816               356.4682
 Red. masses --      1.1596                 1.1346                 1.0838
 Frc consts  --      0.0809                 0.0846                 0.0811
 IR Inten    --    432.3563                28.5741                28.0412

                     22                     23                     24
                      A                      A                      A
 Frequencies --    372.9511               383.9195               385.6254
 Red. masses --      1.1476                 1.2990                 1.1133
 Frc consts  --      0.0940                 0.1128                 0.0975
 IR Inten    --    118.8642                21.0994               132.9533

                     25                     26                     27
                      A                      A                      A
 Frequencies --    418.0999               433.1656               548.7611
 Red. masses --      1.1428                 1.1205                 1.0464
 Frc consts  --      0.1177                 0.1239                 0.1857
 IR Inten    --    288.4098               207.1419               154.2934

                     28                     29                     30
                      A                      A                      A
 Frequencies --   1604.6545              1615.1035              1616.9134
 Red. masses --      1.0844                 1.0817                 1.0816
 Frc consts  --      1.6451                 1.6625                 1.6660
 IR Inten    --    115.1392               113.6420               107.3051

                     31                     32                     33
                      A                      A                      A
 Frequencies --   1617.9027              1638.9831              3753.9320
 Red. masses --      1.0843                 1.0819                 1.0481
 Frc consts  --      1.6723                 1.7123                 8.7020
 IR Inten    --    109.4962                86.4403                47.8925

                     34                     35                     36
                      A                      A                      A
 Frequencies --   3764.1344              3768.0091              3781.7414
 Red. masses --      1.0470                 1.0465                 1.0459
 Frc consts  --      8.7402                 8.7541                 8.8132
 IR Inten    --     40.1418                33.2592                40.7501

                     37                     38                     39
                      A                      A                      A
 Frequencies --   3789.3478              3873.9251              3875.4729
 Red. masses --      1.0457                 1.0816                 1.0803
 Frc consts  --      8.8468                 9.5640                 9.5594
 IR Inten    --     24.1235                72.7961               172.7078

                     40                     41                     42
                      A                      A                      A
 Frequencies --   3876.3555              3876.5771              3891.8276
 Red. masses --      1.0813                 1.0809                 1.0823
 Frc consts  --      9.5728                 9.5707                 9.6584
 IR Inten    --    207.8403                50.6723               126.5723

 - Thermochemistry -
 -------------------
 Temperature   298.150 Kelvin.  Pressure   1.00000 Atm.
 Atom     1 has atomic number  8 and mass  15.99491

 Molecular mass:   113.04259 amu.
 Principal axes and moments of inertia in atomic units:
                           1         2         3
     Eigenvalues --   876.902581345.219601628.39928
           X            0.99998  -0.00677   0.00001
           Y            0.00677   0.99998   0.00042
           Z           -0.00001  -0.00042   1.00000
 This molecule is an asymmetric top.
 Rotational symmetry number  1.
 Warning -- assumption of classical behavior for rotation
           may cause significant error
 Rotational temperatures (Kelvin)      0.09877     0.06439     0.05319
 Rotational constants (GHZ):           2.05809     1.34160     1.10829
 Zero-point vibrational energy     316605.9 (Joules/Mol)
                                   75.67062 (Kcal/Mol)
 Warning -- explicit consideration of  27 degrees of freedom as
           vibrations may cause significant error
 Vibrational temperatures:     22.97    62.88    69.32   102.50   123.35
          (Kelvin)            142.07   144.03   167.04   221.03   261.53
                              273.89   292.48   364.06   371.11   387.41
                              397.54   436.31   460.59   495.06   511.75
                              512.88   536.59   552.37   554.83   601.55
                              623.23   789.54  2308.74  2323.77  2326.38
                             2327.80  2358.13  5401.07  5415.75  5421.32
                             5441.08  5452.03  5573.71  5575.94  5577.21
                             5577.53  5599.47

 Zero-point correction=                           0.120589 (Hartree/Particle)
 Thermal correction to Energy=                    0.137623
 Thermal correction to Enthalpy=                  0.138567
 Thermal correction to Gibbs Free Energy=         0.076051
 Sum of electronic and zero-point Energies=           -544.343988
 Sum of electronic and thermal Energies=              -544.326954
 Sum of electronic and thermal Enthalpies=            -544.326010
 Sum of electronic and thermal Free Energies=         -544.388525

                     E (Thermal)             CV                S
                      KCal/Mol        Cal/Mol-Kelvin    Cal/Mol-Kelvin
 Total                   86.360             52.839            131.575
 Electronic               0.000              0.000              0.000
 Translational            0.889              2.981             40.083
 Rotational               0.889              2.981             29.042
 Vibrational             84.582             46.878             62.450
 Vibration     1          0.593              1.986              7.082
 Vibration     2          0.595              1.980              5.084
 Vibration     3          0.595              1.978              4.891
 Vibration     4          0.598              1.968              4.119
 Vibration     5          0.601              1.959              3.755
 Vibration     6          0.604              1.950              3.479
 Vibration     7          0.604              1.949              3.452
 Vibration     8          0.608              1.936              3.164
 Vibration     9          0.619              1.899              2.627
 Vibration    10          0.630              1.865              2.310
 Vibration    11          0.634              1.853              2.224
 Vibration    12          0.639              1.835              2.103
 Vibration    13          0.664              1.758              1.709
 Vibration    14          0.667              1.749              1.676
 Vibration    15          0.674              1.730              1.601
 Vibration    16          0.678              1.717              1.556
 Vibration    17          0.695              1.668              1.399
 Vibration    18          0.706              1.635              1.309
 Vibration    19          0.723              1.587              1.193
 Vibration    20          0.731              1.564              1.141
 Vibration    21          0.732              1.562              1.137
 Vibration    22          0.744              1.528              1.068
 Vibration    23          0.753              1.504              1.024
 Vibration    24          0.754              1.501              1.017
 Vibration    25          0.781              1.431              0.898
 Vibration    26          0.794              1.398              0.848
 Vibration    27          0.904              1.142              0.547

 Optimization completed on the basis of negligible forces.
    -- Stationary point found.
 Normal termination of Gaussian 16 at Mon Jul 18 21:36:47 2022.
